 argument  1 = profile.nw
 


============================== echo of input deck ==============================
echo

start profile

permanent_dir /tmp
scratch_dir /tmp

memory stack 2000 mb heap 180 mb global 1000 mb noverify

geometry noautosym noautoz
  C     1.170639    1.170639    1.170639
  C     1.894104    0.000000    0.723495
  C    -1.170639   -1.170639    1.170639
  C     1.170639   -1.170639    1.170639
  C    -1.170639    1.170639    1.170639
  C     0.000000   -0.723495    1.894104
  C     0.723495    1.894104    0.000000
  C     0.000000    0.723495    1.894104
  C     1.894104    0.000000   -0.723495
  C     0.723495   -1.894104    0.000000
  C    -1.894104    0.000000    0.723495
  C    -0.723495    1.894104    0.000000
  C     1.170639    1.170639   -1.170639
  C     1.170639   -1.170639   -1.170639
  C    -0.723495   -1.894104    0.000000
  C    -1.894104    0.000000   -0.723495
  C    -1.170639    1.170639   -1.170639
  C     0.000000    0.723495   -1.894104
  C     0.000000   -0.723495   -1.894104
  C    -1.170639   -1.170639   -1.170639
end

basis dz spherical
  * library 6-31G
end

basis pvdz spherical
  * library cc-pvdz
end

basis pvtz spherical
  * library cc-pvtz
end

set "ao basis" dz

set int:cando_txs f

scf
  rhf
  singlet
  thresh 1.0e-7
  direct
end

dft
  xc b3lyp
  direct
end

task scf energy
================================================================================


                                         
                                         
 
 
              Northwest Computational Chemistry Package (NWChem) 6.3
              ------------------------------------------------------
 
 
                    Environmental Molecular Sciences Laboratory
                       Pacific Northwest National Laboratory
                                Richland, WA 99352
 
                              Copyright (c) 1994-2013
                       Pacific Northwest National Laboratory
                            Battelle Memorial Institute
 
             NWChem is an open-source computational chemistry package
                        distributed under the terms of the
                      Educational Community License (ECL) 2.0
             A copy of the license is included with this distribution
                              in the LICENSE.TXT file
 
                                  ACKNOWLEDGMENT
                                  --------------

            This software and its documentation were developed at the
            EMSL at Pacific Northwest National Laboratory, a multiprogram
            national laboratory, operated for the U.S. Department of Energy
            by Battelle under Contract Number DE-AC05-76RL01830. Support
            for this work was provided by the Department of Energy Office
            of Biological and Environmental Research, Office of Basic
            Energy Sciences, and the Office of Advanced Scientific Computing.


           Job information
           ---------------

    hostname        = protos.mcs.anl.gov
    program         = /home/jhammond/NWCHEM/bin/nwchem-18feb2014-mkl-gprof
    date            = Tue Feb 18 15:49:20 2014

    compiled        = Tue_Feb_18_14:34:23_2014
    source          = /home/jhammond/NWCHEM/nwchem-trunk
    nwchem branch   = Development
    nwchem revision = 25267
    ga revision     = 10402
    input           = profile.nw
    prefix          = profile.
    data base       = /tmp/profile.db
    status          = startup
    nproc           =        1
    time left       =     -1s



           Memory information
           ------------------

    heap     =   23592961 doubles =    180.0 Mbytes
    stack    =  262144001 doubles =   2000.0 Mbytes
    global   =  131072000 doubles =   1000.0 Mbytes (distinct from heap & stack)
    total    =  416808962 doubles =   3180.0 Mbytes
    verify   = no 
    hardfail = no 


           Directory information
           ---------------------
 
  0 permanent = /tmp
  0 scratch   = /tmp
 
 
 
 
                                NWChem Input Module
                                -------------------
 
 

 Scaling coordinates for geometry "geometry" by  1.889725989
 (inverse scale =  0.529177249)

 
 
                             Geometry "geometry" -> ""
                             -------------------------
 
 Output coordinates in angstroms (scale by  1.889725989 to convert to a.u.)
 
  No.       Tag          Charge          X              Y              Z
 ---- ---------------- ---------- -------------- -------------- --------------
    1 C                    6.0000     1.17063900     1.17063900     1.17063900
    2 C                    6.0000     1.89410400     0.00000000     0.72349500
    3 C                    6.0000    -1.17063900    -1.17063900     1.17063900
    4 C                    6.0000     1.17063900    -1.17063900     1.17063900
    5 C                    6.0000    -1.17063900     1.17063900     1.17063900
    6 C                    6.0000     0.00000000    -0.72349500     1.89410400
    7 C                    6.0000     0.72349500     1.89410400     0.00000000
    8 C                    6.0000     0.00000000     0.72349500     1.89410400
    9 C                    6.0000     1.89410400     0.00000000    -0.72349500
   10 C                    6.0000     0.72349500    -1.89410400     0.00000000
   11 C                    6.0000    -1.89410400     0.00000000     0.72349500
   12 C                    6.0000    -0.72349500     1.89410400     0.00000000
   13 C                    6.0000     1.17063900     1.17063900    -1.17063900
   14 C                    6.0000     1.17063900    -1.17063900    -1.17063900
   15 C                    6.0000    -0.72349500    -1.89410400     0.00000000
   16 C                    6.0000    -1.89410400     0.00000000    -0.72349500
   17 C                    6.0000    -1.17063900     1.17063900    -1.17063900
   18 C                    6.0000     0.00000000     0.72349500    -1.89410400
   19 C                    6.0000     0.00000000    -0.72349500    -1.89410400
   20 C                    6.0000    -1.17063900    -1.17063900    -1.17063900
 
      Atomic Mass 
      ----------- 
 
      C                 12.000000
 

 Effective nuclear repulsion energy (a.u.)    1426.2360984021

            Nuclear Dipole moment (a.u.) 
            ----------------------------
        X                 Y               Z
 ---------------- ---------------- ----------------
     0.0000000000     0.0000000000     0.0000000000
 
 
            XYZ format geometry
            -------------------
    20
 geometry
 C                     1.17063900     1.17063900     1.17063900
 C                     1.89410400     0.00000000     0.72349500
 C                    -1.17063900    -1.17063900     1.17063900
 C                     1.17063900    -1.17063900     1.17063900
 C                    -1.17063900     1.17063900     1.17063900
 C                     0.00000000    -0.72349500     1.89410400
 C                     0.72349500     1.89410400     0.00000000
 C                     0.00000000     0.72349500     1.89410400
 C                     1.89410400     0.00000000    -0.72349500
 C                     0.72349500    -1.89410400     0.00000000
 C                    -1.89410400     0.00000000     0.72349500
 C                    -0.72349500     1.89410400     0.00000000
 C                     1.17063900     1.17063900    -1.17063900
 C                     1.17063900    -1.17063900    -1.17063900
 C                    -0.72349500    -1.89410400     0.00000000
 C                    -1.89410400     0.00000000    -0.72349500
 C                    -1.17063900     1.17063900    -1.17063900
 C                     0.00000000     0.72349500    -1.89410400
 C                     0.00000000    -0.72349500    -1.89410400
 C                    -1.17063900    -1.17063900    -1.17063900
 
 ==============================================================================
                                internuclear distances
 ------------------------------------------------------------------------------
       center one      |      center two      | atomic units |  angstroms
 ------------------------------------------------------------------------------
    2 C                |   1 C                |     2.73439  |     1.44697
    4 C                |   2 C                |     2.73439  |     1.44697
    6 C                |   3 C                |     2.73439  |     1.44697
    6 C                |   4 C                |     2.73439  |     1.44697
    7 C                |   1 C                |     2.73439  |     1.44697
    8 C                |   1 C                |     2.73439  |     1.44697
    8 C                |   5 C                |     2.73439  |     1.44697
    8 C                |   6 C                |     2.73441  |     1.44699
    9 C                |   2 C                |     2.73441  |     1.44699
   10 C                |   4 C                |     2.73439  |     1.44697
   11 C                |   3 C                |     2.73439  |     1.44697
   11 C                |   5 C                |     2.73439  |     1.44697
   12 C                |   5 C                |     2.73439  |     1.44697
   12 C                |   7 C                |     2.73441  |     1.44699
   13 C                |   7 C                |     2.73439  |     1.44697
   13 C                |   9 C                |     2.73439  |     1.44697
   14 C                |   9 C                |     2.73439  |     1.44697
   14 C                |  10 C                |     2.73439  |     1.44697
   15 C                |   3 C                |     2.73439  |     1.44697
   15 C                |  10 C                |     2.73441  |     1.44699
   16 C                |  11 C                |     2.73441  |     1.44699
   17 C                |  12 C                |     2.73439  |     1.44697
   17 C                |  16 C                |     2.73439  |     1.44697
   18 C                |  13 C                |     2.73439  |     1.44697
   18 C                |  17 C                |     2.73439  |     1.44697
   19 C                |  14 C                |     2.73439  |     1.44697
   19 C                |  18 C                |     2.73441  |     1.44699
   20 C                |  15 C                |     2.73439  |     1.44697
   20 C                |  16 C                |     2.73439  |     1.44697
   20 C                |  19 C                |     2.73439  |     1.44697
 ------------------------------------------------------------------------------
                         number of included internuclear distances:         30
 ==============================================================================



 ==============================================================================
                                 internuclear angles
 ------------------------------------------------------------------------------
        center 1       |       center 2       |       center 3       |  degrees
 ------------------------------------------------------------------------------
    2 C                |   1 C                |   7 C                |   108.00
    2 C                |   1 C                |   8 C                |   108.00
    7 C                |   1 C                |   8 C                |   108.00
    1 C                |   2 C                |   4 C                |   108.00
    1 C                |   2 C                |   9 C                |   108.00
    4 C                |   2 C                |   9 C                |   108.00
    6 C                |   3 C                |  11 C                |   108.00
    6 C                |   3 C                |  15 C                |   108.00
   11 C                |   3 C                |  15 C                |   108.00
    2 C                |   4 C                |   6 C                |   108.00
    2 C                |   4 C                |  10 C                |   108.00
    6 C                |   4 C                |  10 C                |   108.00
    8 C                |   5 C                |  11 C                |   108.00
    8 C                |   5 C                |  12 C                |   108.00
   11 C                |   5 C                |  12 C                |   108.00
    3 C                |   6 C                |   4 C                |   108.00
    3 C                |   6 C                |   8 C                |   108.00
    4 C                |   6 C                |   8 C                |   108.00
    1 C                |   7 C                |  12 C                |   108.00
    1 C                |   7 C                |  13 C                |   108.00
   12 C                |   7 C                |  13 C                |   108.00
    1 C                |   8 C                |   5 C                |   108.00
    1 C                |   8 C                |   6 C                |   108.00
    5 C                |   8 C                |   6 C                |   108.00
    2 C                |   9 C                |  13 C                |   108.00
    2 C                |   9 C                |  14 C                |   108.00
   13 C                |   9 C                |  14 C                |   108.00
    4 C                |  10 C                |  14 C                |   108.00
    4 C                |  10 C                |  15 C                |   108.00
   14 C                |  10 C                |  15 C                |   108.00
    3 C                |  11 C                |   5 C                |   108.00
    3 C                |  11 C                |  16 C                |   108.00
    5 C                |  11 C                |  16 C                |   108.00
    5 C                |  12 C                |   7 C                |   108.00
    5 C                |  12 C                |  17 C                |   108.00
    7 C                |  12 C                |  17 C                |   108.00
    7 C                |  13 C                |   9 C                |   108.00
    7 C                |  13 C                |  18 C                |   108.00
    9 C                |  13 C                |  18 C                |   108.00
    9 C                |  14 C                |  10 C                |   108.00
    9 C                |  14 C                |  19 C                |   108.00
   10 C                |  14 C                |  19 C                |   108.00
    3 C                |  15 C                |  10 C                |   108.00
    3 C                |  15 C                |  20 C                |   108.00
   10 C                |  15 C                |  20 C                |   108.00
   11 C                |  16 C                |  17 C                |   108.00
   11 C                |  16 C                |  20 C                |   108.00
   17 C                |  16 C                |  20 C                |   108.00
   12 C                |  17 C                |  16 C                |   108.00
   12 C                |  17 C                |  18 C                |   108.00
   16 C                |  17 C                |  18 C                |   108.00
   13 C                |  18 C                |  17 C                |   108.00
   13 C                |  18 C                |  19 C                |   108.00
   17 C                |  18 C                |  19 C                |   108.00
   14 C                |  19 C                |  18 C                |   108.00
   14 C                |  19 C                |  20 C                |   108.00
   18 C                |  19 C                |  20 C                |   108.00
   15 C                |  20 C                |  16 C                |   108.00
   15 C                |  20 C                |  19 C                |   108.00
   16 C                |  20 C                |  19 C                |   108.00
 ------------------------------------------------------------------------------
                            number of included internuclear angles:         60
 ==============================================================================





 Summary of "dz" -> "" (spherical)
 ------------------------------------------------------------------------------
       Tag                 Description            Shells   Functions and Types
 ---------------- ------------------------------  ------  ---------------------
 *                           6-31G                    on all atoms 




 Summary of "pvdz" -> "" (spherical)
 ------------------------------------------------------------------------------
       Tag                 Description            Shells   Functions and Types
 ---------------- ------------------------------  ------  ---------------------
 *                          cc-pvdz                   on all atoms 




 Summary of "pvtz" -> "" (spherical)
 ------------------------------------------------------------------------------
       Tag                 Description            Shells   Functions and Types
 ---------------- ------------------------------  ------  ---------------------
 *                          cc-pvtz                   on all atoms 


                      Basis "ao basis" -> "dz" (spherical)
                      -----
  C (Carbon)
  ----------
            Exponent  Coefficients 
       -------------- ---------------------------------------------------------
  1 S  3.04752490E+03  0.001835
  1 S  4.57369510E+02  0.014037
  1 S  1.03948690E+02  0.068843
  1 S  2.92101550E+01  0.232184
  1 S  9.28666300E+00  0.467941
  1 S  3.16392700E+00  0.362312
 
  2 S  7.86827240E+00 -0.119332
  2 S  1.88128850E+00 -0.160854
  2 S  5.44249300E-01  1.143456
 
  3 P  7.86827240E+00  0.068999
  3 P  1.88128850E+00  0.316424
  3 P  5.44249300E-01  0.744308
 
  4 S  1.68714400E-01  1.000000
 
  5 P  1.68714400E-01  1.000000
 


 Summary of "ao basis" -> "dz" (spherical)
 ------------------------------------------------------------------------------
       Tag                 Description            Shells   Functions and Types
 ---------------- ------------------------------  ------  ---------------------
 C                           6-31G                   5        9   3s2p


                                 NWChem SCF Module
                                 -----------------
 
 

  ao basis        = "dz"
  functions       =   180
  atoms           =    20
  closed shells   =    60
  open shells     =     0
  charge          =   0.00
  wavefunction    = RHF 
  input vectors   = atomic
  output vectors  = /tmp/profile.movecs
  use symmetry    = F
  symmetry adapt  = F


 Summary of "ao basis" -> "dz" (spherical)
 ------------------------------------------------------------------------------
       Tag                 Description            Shells   Functions and Types
 ---------------- ------------------------------  ------  ---------------------
 C                           6-31G                   5        9   3s2p


  int_init: cando_txs set to always be  F

 Forming initial guess at       0.4s

 
      Superposition of Atomic Density Guess
      -------------------------------------
 
 Sum of atomic energies:        -753.20508297
 
      Non-variational initial energy
      ------------------------------

 Total energy =    -769.423239
 1-e energy   =   -3854.063676
 2-e energy   =    1658.404340
 HOMO         =      -0.066876
 LUMO         =      -0.066860
 

 Starting SCF solution at      15.2s



 ----------------------------------------------
         Quadratically convergent ROHF

 Convergence threshold     :          1.000E-07
 Maximum no. of iterations :           30
 Final Fock-matrix accuracy:          1.000E-09
 ----------------------------------------------


              iter       energy          gnorm     gmax       time
             ----- ------------------- --------- --------- --------
                 1     -755.9201617031  1.40D+00  3.38D-01    100.4
                 2     -756.1317560868  4.93D-01  8.57D-02    183.1
  ga_iter_lsolve: convergence stagnant ... aborting solve

 Disabled NR: increased maxiter to  40

                 3     -756.1532036743  1.71D-01  4.01D-02    383.1
                 4     -756.1564171942  2.67D-02  3.37D-03    465.1
                 5     -756.1564998498  1.06D-02  2.16D-03    546.8
                 6     -756.1565220950  5.41D-03  9.89D-04    711.7
                 7     -756.1565250173  8.65D-04  1.53D-04    793.9
                 8     -756.1565250968  1.30D-04  3.02D-05    957.9
                 9     -756.1565250984  5.57D-05  7.31D-06   1039.6
                10     -756.1565250987  2.05D-05  4.05D-06   1204.2
                11     -756.1565250988  6.58D-06  1.22D-06   1285.9
                12     -756.1565250988  1.78D-06  3.75D-07   1368.4
                13     -756.1565250988  4.74D-07  8.03D-08   1450.9
                14     -756.1565250988  1.99D-07  3.74D-08   1533.0
                15     -756.1565250988  6.48D-08  1.29D-08   1697.9


       Final RHF  results 
       ------------------ 

         Total SCF energy =   -756.156525098778
      One-electron energy =  -3852.428196382074
      Two-electron energy =   1670.035572881238
 Nuclear repulsion energy =   1426.236098402058

        Time for solution =   1679.9s


             Final eigenvalues
             -----------------

              1      
    1  -11.3416
    2  -11.3416
    3  -11.3416
    4  -11.3416
    5  -11.3416
    6  -11.3416
    7  -11.3407
    8  -11.3407
    9  -11.3407
   10  -11.3407
   11  -11.3407
   12  -11.3407
   13  -11.2989
   14  -11.2988
   15  -11.2988
   16  -11.2988
   17  -11.2987
   18  -11.2987
   19  -11.2987
   20  -11.2987
   21   -1.3815
   22   -1.2741
   23   -1.2741
   24   -1.2741
   25   -1.1016
   26   -1.1016
   27   -1.0934
   28   -1.0934
   29   -1.0934
   30   -0.9035
   31   -0.9035
   32   -0.9035
   33   -0.9001
   34   -0.8460
   35   -0.8460
   36   -0.8460
   37   -0.7001
   38   -0.6879
   39   -0.6879
   40   -0.6879
   41   -0.6644
   42   -0.6259
   43   -0.6259
   44   -0.6187
   45   -0.6187
   46   -0.6187
   47   -0.5525
   48   -0.5525
   49   -0.5525
   50   -0.5376
   51   -0.5376
   52   -0.5376
   53   -0.5296
   54   -0.5296
   55   -0.3622
   56   -0.3622
   57   -0.3622
   58   -0.3406
   59   -0.3406
   60   -0.2252
   61   -0.0409
   62   -0.0409
   63   -0.0409
   64    0.0846
   65    0.0846
   66    0.0846
   67    0.1303
   68    0.1303
   69    0.1303
   70    0.1339
 
                       ROHF Final Molecular Orbital Analysis
                       -------------------------------------
 
 Vector   21  Occ=2.000000D+00  E=-1.381493D+00
              MO Center=  6.2D-12, -1.4D-12,  7.5D-12, r^2= 3.5D+00
   Bfn.  Coefficient  Atom+Function         Bfn.  Coefficient  Atom+Function  
  ----- ------------  ---------------      ----- ------------  ---------------
    11      0.094315   2 C  s                47      0.094315   6 C  s         
    56      0.094315   7 C  s                65      0.094315   8 C  s         
    74      0.094315   9 C  s                83      0.094315  10 C  s         
    92      0.094315  11 C  s               101      0.094315  12 C  s         
   128      0.094315  15 C  s               137      0.094315  16 C  s         
 
 Vector   22  Occ=2.000000D+00  E=-1.274050D+00
              MO Center= -3.3D-12, -1.4D-12, -2.9D-12, r^2= 3.8D+00
   Bfn.  Coefficient  Atom+Function         Bfn.  Coefficient  Atom+Function  
  ----- ------------  ---------------      ----- ------------  ---------------
    11      0.149580   2 C  s               137     -0.149580  16 C  s         
     2      0.136092   1 C  s               173     -0.136092  20 C  s         
 
 Vector   23  Occ=2.000000D+00  E=-1.274050D+00
              MO Center=  2.6D-12,  1.9D-12,  2.0D-12, r^2= 3.8D+00
   Bfn.  Coefficient  Atom+Function         Bfn.  Coefficient  Atom+Function  
  ----- ------------  ---------------      ----- ------------  ---------------
    56      0.151356   7 C  s               128     -0.151356  15 C  s         
 
 Vector   24  Occ=2.000000D+00  E=-1.274050D+00
              MO Center=  2.6D-12, -6.6D-13,  2.8D-12, r^2= 3.8D+00
   Bfn.  Coefficient  Atom+Function         Bfn.  Coefficient  Atom+Function  
  ----- ------------  ---------------      ----- ------------  ---------------
    38      0.150190   5 C  s               119     -0.150190  14 C  s         
 
 Vector   25  Occ=2.000000D+00  E=-1.101629D+00
              MO Center=  8.6D-14, -4.4D-13, -4.5D-13, r^2= 4.3D+00
   Bfn.  Coefficient  Atom+Function         Bfn.  Coefficient  Atom+Function  
  ----- ------------  ---------------      ----- ------------  ---------------
    51      0.166019   6 C  s                69      0.166019   8 C  s         
   159      0.166019  18 C  s               168      0.166019  19 C  s         
    47      0.165111   6 C  s                65      0.165111   8 C  s         
   155      0.165111  18 C  s               164      0.165111  19 C  s         
 
 Vector   26  Occ=2.000000D+00  E=-1.101629D+00
              MO Center=  3.5D-13,  2.3D-13,  1.3D-12, r^2= 4.3D+00
   Bfn.  Coefficient  Atom+Function         Bfn.  Coefficient  Atom+Function  
  ----- ------------  ---------------      ----- ------------  ---------------
    15      0.149437   2 C  s                78      0.149437   9 C  s         
    96      0.149437  11 C  s               141      0.149437  16 C  s         
    11      0.147685   2 C  s                74      0.147685   9 C  s         
    92      0.147685  11 C  s               137      0.147685  16 C  s         
    56     -0.138296   7 C  s                60     -0.138115   7 C  s         
 
 Vector   27  Occ=2.000000D+00  E=-1.093384D+00
              MO Center=  6.6D-13,  1.3D-14,  1.1D-12, r^2= 4.3D+00
   Bfn.  Coefficient  Atom+Function         Bfn.  Coefficient  Atom+Function  
  ----- ------------  ---------------      ----- ------------  ---------------
     6      0.177669   1 C  s               177      0.177669  20 C  s         
     2      0.171125   1 C  s               173      0.171125  20 C  s         
 
 Vector   28  Occ=2.000000D+00  E=-1.093384D+00
              MO Center=  9.3D-13,  8.6D-14, -3.8D-13, r^2= 4.3D+00
   Bfn.  Coefficient  Atom+Function         Bfn.  Coefficient  Atom+Function  
  ----- ------------  ---------------      ----- ------------  ---------------
    24      0.167140   3 C  s               114      0.167140  13 C  s         
    20      0.160985   3 C  s               110      0.160985  13 C  s         
 
 Vector   29  Occ=2.000000D+00  E=-1.093384D+00
              MO Center=  9.9D-13, -1.9D-13,  1.4D-12, r^2= 4.3D+00
   Bfn.  Coefficient  Atom+Function         Bfn.  Coefficient  Atom+Function  
  ----- ------------  ---------------      ----- ------------  ---------------
    42      0.195541   5 C  s               123      0.195541  14 C  s         
    38      0.188339   5 C  s               119      0.188339  14 C  s         
 
 Vector   30  Occ=2.000000D+00  E=-9.035467D-01
              MO Center= -1.2D-12,  1.0D-15, -5.5D-13, r^2= 4.7D+00
   Bfn.  Coefficient  Atom+Function         Bfn.  Coefficient  Atom+Function  
  ----- ------------  ---------------      ----- ------------  ---------------
    15      0.220536   2 C  s               141     -0.220536  16 C  s         
    11      0.180032   2 C  s               137     -0.180032  16 C  s         
    51     -0.175200   6 C  s               159      0.175200  18 C  s         
    60     -0.170896   7 C  s               132      0.170896  15 C  s         
    42      0.158995   5 C  s               123     -0.158995  14 C  s         
 
 Vector   31  Occ=2.000000D+00  E=-9.035467D-01
              MO Center=  7.3D-13, -1.0D-13, -8.8D-13, r^2= 4.7D+00
   Bfn.  Coefficient  Atom+Function         Bfn.  Coefficient  Atom+Function  
  ----- ------------  ---------------      ----- ------------  ---------------
    69      0.210836   8 C  s               168     -0.210836  19 C  s         
    87      0.187360  10 C  s               105     -0.187360  12 C  s         
    65      0.174894   8 C  s               164     -0.174894  19 C  s         
 
 Vector   32  Occ=2.000000D+00  E=-9.035467D-01
              MO Center= -1.6D-13,  8.1D-16,  7.6D-13, r^2= 4.7D+00
   Bfn.  Coefficient  Atom+Function         Bfn.  Coefficient  Atom+Function  
  ----- ------------  ---------------      ----- ------------  ---------------
    78      0.235952   9 C  s                96     -0.235952  11 C  s         
    74      0.192242   9 C  s                92     -0.192242  11 C  s         
 
 Vector   33  Occ=2.000000D+00  E=-9.000775D-01
              MO Center=  3.3D-14,  5.4D-15, -1.0D-13, r^2= 4.7D+00
   Bfn.  Coefficient  Atom+Function         Bfn.  Coefficient  Atom+Function  
  ----- ------------  ---------------      ----- ------------  ---------------
     6      0.199488   1 C  s                24      0.199488   3 C  s         
    33     -0.199488   4 C  s                42     -0.199488   5 C  s         
   114     -0.199488  13 C  s               123      0.199488  14 C  s         
   150      0.199488  17 C  s               177     -0.199488  20 C  s         
 
 Vector   34  Occ=2.000000D+00  E=-8.459574D-01
              MO Center=  1.3D-12, -3.8D-13,  1.3D-12, r^2= 4.7D+00
   Bfn.  Coefficient  Atom+Function         Bfn.  Coefficient  Atom+Function  
  ----- ------------  ---------------      ----- ------------  ---------------
    42      0.249629   5 C  s               123     -0.249629  14 C  s         
    78      0.229100   9 C  s                96     -0.229100  11 C  s         
    87      0.210521  10 C  s               105     -0.210521  12 C  s         
    60      0.151330   7 C  s               132     -0.151330  15 C  s         
    69     -0.150141   8 C  s               168      0.150141  19 C  s         
 
 Vector   35  Occ=2.000000D+00  E=-8.459574D-01
              MO Center=  7.1D-13, -3.4D-13,  2.7D-12, r^2= 4.7D+00
   Bfn.  Coefficient  Atom+Function         Bfn.  Coefficient  Atom+Function  
  ----- ------------  ---------------      ----- ------------  ---------------
    51      0.276883   6 C  s               159     -0.276883  18 C  s         
    69     -0.220884   8 C  s               168      0.220884  19 C  s         
    24     -0.213181   3 C  s               114      0.213181  13 C  s         
    33     -0.163201   4 C  s               150      0.163201  17 C  s         
 
 Vector   36  Occ=2.000000D+00  E=-8.459574D-01
              MO Center=  2.6D-12, -3.6D-14,  1.8D-12, r^2= 4.7D+00
   Bfn.  Coefficient  Atom+Function         Bfn.  Coefficient  Atom+Function  
  ----- ------------  ---------------      ----- ------------  ---------------
    15     -0.242765   2 C  s               141      0.242765  16 C  s         
     6      0.226534   1 C  s               177     -0.226534  20 C  s         
    60     -0.203955   7 C  s               132      0.203955  15 C  s         
    33      0.190612   4 C  s               150     -0.190612  17 C  s         
    87     -0.184136  10 C  s               105      0.184136  12 C  s         
 
 Vector   37  Occ=2.000000D+00  E=-7.001026D-01
              MO Center= -2.3D-13, -3.2D-13, -1.7D-13, r^2= 5.0D+00
   Bfn.  Coefficient  Atom+Function         Bfn.  Coefficient  Atom+Function  
  ----- ------------  ---------------      ----- ------------  ---------------
     6      0.167964   1 C  s                24      0.167964   3 C  s         
    33      0.167964   4 C  s                42      0.167964   5 C  s         
   114      0.167964  13 C  s               123      0.167964  14 C  s         
   150      0.167964  17 C  s               177      0.167964  20 C  s         
 
 Vector   38  Occ=2.000000D+00  E=-6.879499D-01
              MO Center=  1.9D-12, -1.8D-13,  5.5D-13, r^2= 5.0D+00
   Bfn.  Coefficient  Atom+Function         Bfn.  Coefficient  Atom+Function  
  ----- ------------  ---------------      ----- ------------  ---------------
    42      0.219177   5 C  s               123      0.219177  14 C  s         
    51      0.185542   6 C  s                69     -0.185542   8 C  s         
   159      0.185542  18 C  s               168     -0.185542  19 C  s         
    60      0.176405   7 C  s                87     -0.176405  10 C  s         
   105     -0.176405  12 C  s               132      0.176405  15 C  s         
 
 Vector   39  Occ=2.000000D+00  E=-6.879499D-01
              MO Center= -2.4D-12,  1.2D-13,  2.1D-12, r^2= 5.0D+00
   Bfn.  Coefficient  Atom+Function         Bfn.  Coefficient  Atom+Function  
  ----- ------------  ---------------      ----- ------------  ---------------
    15      0.253411   2 C  s                78     -0.253411   9 C  s         
    96     -0.253411  11 C  s               141      0.253411  16 C  s         
    24      0.186994   3 C  s               114      0.186994  13 C  s         
    48     -0.167672   6 C  px              156      0.167672  18 C  px        
 
 Vector   40  Occ=2.000000D+00  E=-6.879499D-01
              MO Center=  5.5D-13, -6.7D-13, -2.4D-12, r^2= 5.0D+00
   Bfn.  Coefficient  Atom+Function         Bfn.  Coefficient  Atom+Function  
  ----- ------------  ---------------      ----- ------------  ---------------
     6      0.200236   1 C  s               177      0.200236  20 C  s         
    51      0.197370   6 C  s                69     -0.197370   8 C  s         
   159      0.197370  18 C  s               168     -0.197370  19 C  s         
    60     -0.187174   7 C  s                87      0.187174  10 C  s         
   105      0.187174  12 C  s               132     -0.187174  15 C  s         
 
 Vector   41  Occ=2.000000D+00  E=-6.643527D-01
              MO Center=  6.3D-12, -1.5D-12,  7.5D-12, r^2= 6.0D+00
   Bfn.  Coefficient  Atom+Function         Bfn.  Coefficient  Atom+Function  
  ----- ------------  ---------------      ----- ------------  ---------------
    12      0.087489   2 C  px               50      0.087489   6 C  pz        
    58      0.087489   7 C  py               68      0.087489   8 C  pz        
    75      0.087489   9 C  px               85     -0.087489  10 C  py        
    93     -0.087489  11 C  px              103      0.087489  12 C  py        
   130     -0.087489  15 C  py              138     -0.087489  16 C  px        
 
 Vector   42  Occ=2.000000D+00  E=-6.258936D-01
              MO Center=  4.1D-12,  6.0D-13,  7.8D-12, r^2= 5.0D+00
   Bfn.  Coefficient  Atom+Function         Bfn.  Coefficient  Atom+Function  
  ----- ------------  ---------------      ----- ------------  ---------------
    49      0.215244   6 C  py               67     -0.215244   8 C  py        
   157     -0.215244  18 C  py              166      0.215244  19 C  py        
 
 Vector   43  Occ=2.000000D+00  E=-6.258936D-01
              MO Center=  2.1D-12, -1.5D-12, -2.4D-13, r^2= 5.0D+00
   Bfn.  Coefficient  Atom+Function         Bfn.  Coefficient  Atom+Function  
  ----- ------------  ---------------      ----- ------------  ---------------
    57      0.205433   7 C  px               84      0.205433  10 C  px        
   102     -0.205433  12 C  px              129     -0.205433  15 C  px        
    14     -0.167381   2 C  pz               77      0.167381   9 C  pz        
    95     -0.167381  11 C  pz              140      0.167381  16 C  pz        
 
 Vector   44  Occ=2.000000D+00  E=-6.187174D-01
              MO Center=  7.8D-12, -7.1D-13,  8.7D-12, r^2= 5.0D+00
   Bfn.  Coefficient  Atom+Function         Bfn.  Coefficient  Atom+Function  
  ----- ------------  ---------------      ----- ------------  ---------------
    13      0.222022   2 C  py              139     -0.222022  16 C  py        
    59     -0.173653   7 C  pz              131      0.173653  15 C  pz        
    48      0.172154   6 C  px              156     -0.172154  18 C  px        
    30     -0.155066   4 C  px              147      0.155066  17 C  px        
 
 Vector   45  Occ=2.000000D+00  E=-6.187174D-01
              MO Center=  2.2D-12, -4.5D-14,  1.4D-12, r^2= 5.0D+00
   Bfn.  Coefficient  Atom+Function         Bfn.  Coefficient  Atom+Function  
  ----- ------------  ---------------      ----- ------------  ---------------
    66      0.211921   8 C  px              165     -0.211921  19 C  px        
    86     -0.187459  10 C  pz              104      0.187459  12 C  pz        
    41     -0.153527   5 C  pz              122      0.153527  14 C  pz        
 
 Vector   46  Occ=2.000000D+00  E=-6.187174D-01
              MO Center=  5.0D-13, -1.1D-12,  2.7D-12, r^2= 5.0D+00
   Bfn.  Coefficient  Atom+Function         Bfn.  Coefficient  Atom+Function  
  ----- ------------  ---------------      ----- ------------  ---------------
    76      0.237161   9 C  py               94     -0.237161  11 C  py        
    21     -0.152351   3 C  px              111      0.152351  13 C  px        
 
 Vector   47  Occ=2.000000D+00  E=-5.525427D-01
              MO Center= -4.2D-12, -1.4D-12, -3.6D-12, r^2= 6.1D+00
   Bfn.  Coefficient  Atom+Function         Bfn.  Coefficient  Atom+Function  
  ----- ------------  ---------------      ----- ------------  ---------------
    12      0.166899   2 C  px              138      0.166899  16 C  px        
 
 Vector   48  Occ=2.000000D+00  E=-5.525427D-01
              MO Center=  2.2D-12,  1.9D-12,  1.8D-12, r^2= 6.1D+00
   Bfn.  Coefficient  Atom+Function         Bfn.  Coefficient  Atom+Function  
  ----- ------------  ---------------      ----- ------------  ---------------
    58      0.169769   7 C  py              130      0.169769  15 C  py        
 
 Vector   49  Occ=2.000000D+00  E=-5.525427D-01
              MO Center=  1.8D-12, -6.8D-13,  2.1D-12, r^2= 6.1D+00
   Bfn.  Coefficient  Atom+Function         Bfn.  Coefficient  Atom+Function  
  ----- ------------  ---------------      ----- ------------  ---------------
    75      0.155756   9 C  px               93      0.155756  11 C  px        
 
 Vector   50  Occ=2.000000D+00  E=-5.375600D-01
              MO Center= -8.9D-12,  1.2D-12, -1.1D-11, r^2= 4.9D+00
   Bfn.  Coefficient  Atom+Function         Bfn.  Coefficient  Atom+Function  
  ----- ------------  ---------------      ----- ------------  ---------------
    77      0.175892   9 C  pz               95      0.175892  11 C  pz        
    67      0.163883   8 C  py              166      0.163883  19 C  py        
    14     -0.150367   2 C  pz              140     -0.150367  16 C  pz        
 
 Vector   51  Occ=2.000000D+00  E=-5.375600D-01
              MO Center= -6.3D-12,  1.0D-12, -4.6D-12, r^2= 4.9D+00
   Bfn.  Coefficient  Atom+Function         Bfn.  Coefficient  Atom+Function  
  ----- ------------  ---------------      ----- ------------  ---------------
    57      0.227315   7 C  px              129      0.227315  15 C  px        
    84     -0.220916  10 C  px              102     -0.220916  12 C  px        
    13     -0.153825   2 C  py               76     -0.153825   9 C  py        
    94     -0.153825  11 C  py              139     -0.153825  16 C  py        
 
 Vector   52  Occ=2.000000D+00  E=-5.375600D-01
              MO Center= -4.8D-12,  2.0D-12, -7.9D-12, r^2= 4.9D+00
   Bfn.  Coefficient  Atom+Function         Bfn.  Coefficient  Atom+Function  
  ----- ------------  ---------------      ----- ------------  ---------------
    14      0.188508   2 C  pz              140      0.188508  16 C  pz        
    67      0.167431   8 C  py              166      0.167431  19 C  py        
    49     -0.162380   6 C  py               77     -0.161658   9 C  pz        
    95     -0.161658  11 C  pz              157     -0.162380  18 C  py        
 
 Vector   53  Occ=2.000000D+00  E=-5.296404D-01
              MO Center= -3.5D-12,  1.1D-12, -1.2D-11, r^2= 4.9D+00
   Bfn.  Coefficient  Atom+Function         Bfn.  Coefficient  Atom+Function  
  ----- ------------  ---------------      ----- ------------  ---------------
    48      0.206596   6 C  px               66     -0.206596   8 C  px        
   156      0.206596  18 C  px              165     -0.206596  19 C  px        
 
 Vector   54  Occ=2.000000D+00  E=-5.296404D-01
              MO Center= -8.8D-12,  1.3D-12, -3.6D-12, r^2= 4.9D+00
   Bfn.  Coefficient  Atom+Function         Bfn.  Coefficient  Atom+Function  
  ----- ------------  ---------------      ----- ------------  ---------------
    59      0.191904   7 C  pz               86     -0.191904  10 C  pz        
   104     -0.191904  12 C  pz              131      0.191904  15 C  pz        
    13     -0.165930   2 C  py               76      0.165930   9 C  py        
    94      0.165930  11 C  py              139     -0.165930  16 C  py        
 
 Vector   55  Occ=2.000000D+00  E=-3.621706D-01
              MO Center= -7.0D-13,  7.3D-13, -8.0D-13, r^2= 6.2D+00
   Bfn.  Coefficient  Atom+Function         Bfn.  Coefficient  Atom+Function  
  ----- ------------  ---------------      ----- ------------  ---------------
    44     -0.179067   5 C  py              125      0.179067  14 C  py        
    45     -0.175688   5 C  pz              126      0.175688  14 C  pz        
    39      0.169296   5 C  px               40     -0.170008   5 C  py        
   121      0.170008  14 C  py               43      0.168916   5 C  px        
   120     -0.169296  14 C  px              124     -0.168916  14 C  px        
 
 Vector   56  Occ=2.000000D+00  E=-3.621706D-01
              MO Center= -2.8D-12, -7.9D-13, -2.1D-12, r^2= 6.2D+00
   Bfn.  Coefficient  Atom+Function         Bfn.  Coefficient  Atom+Function  
  ----- ------------  ---------------      ----- ------------  ---------------
    25     -0.163016   3 C  px              115      0.163016  13 C  px        
    23      0.154117   3 C  pz              113     -0.154117  13 C  pz        
 
 Vector   57  Occ=2.000000D+00  E=-3.621706D-01
              MO Center=  1.1D-12,  7.0D-13, -3.4D-14, r^2= 6.2D+00
   Bfn.  Coefficient  Atom+Function         Bfn.  Coefficient  Atom+Function  
  ----- ------------  ---------------      ----- ------------  ---------------
     8      0.168331   1 C  py              179     -0.168331  20 C  py        
     9      0.161615   1 C  pz              180     -0.161615  20 C  pz        
     4      0.158182   1 C  py              175     -0.158182  20 C  py        
     3      0.156953   1 C  px              174     -0.156953  20 C  px        
 
 Vector   58  Occ=2.000000D+00  E=-3.406266D-01
              MO Center= -3.2D-12,  5.7D-13, -2.4D-13, r^2= 6.2D+00
   Bfn.  Coefficient  Atom+Function         Bfn.  Coefficient  Atom+Function  
  ----- ------------  ---------------      ----- ------------  ---------------
    16      0.217198   2 C  px               79      0.217198   9 C  px        
    97     -0.217198  11 C  px              142     -0.217198  16 C  px        
    62     -0.201555   7 C  py               89      0.201555  10 C  py        
   107     -0.201555  12 C  py              134      0.201555  15 C  py        
    12      0.188670   2 C  px               75      0.188670   9 C  px        
 
 Vector   59  Occ=2.000000D+00  E=-3.406266D-01
              MO Center= -8.6D-13, -9.6D-15, -3.8D-12, r^2= 6.2D+00
   Bfn.  Coefficient  Atom+Function         Bfn.  Coefficient  Atom+Function  
  ----- ------------  ---------------      ----- ------------  ---------------
    54      0.241767   6 C  pz               72      0.241767   8 C  pz        
   162     -0.241767  18 C  pz              171     -0.241767  19 C  pz        
    50      0.214473   6 C  pz               68      0.214473   8 C  pz        
   158     -0.214473  18 C  pz              167     -0.214473  19 C  pz        
 
 Vector   60  Occ=2.000000D+00  E=-2.252253D-01
              MO Center= -3.1D-12,  1.1D-12, -4.0D-12, r^2= 6.4D+00
   Bfn.  Coefficient  Atom+Function         Bfn.  Coefficient  Atom+Function  
  ----- ------------  ---------------      ----- ------------  ---------------
     6      0.256009   1 C  s                24      0.256009   3 C  s         
    33     -0.256009   4 C  s                42     -0.256009   5 C  s         
   114     -0.256009  13 C  s               123      0.256009  14 C  s         
   150      0.256009  17 C  s               177     -0.256009  20 C  s         
     7     -0.164739   1 C  px                8     -0.164739   1 C  py        
 
 Vector   61  Occ=0.000000D+00  E=-4.088284D-02
              MO Center=  2.7D-12, -7.7D-13,  1.7D-12, r^2= 6.4D+00
   Bfn.  Coefficient  Atom+Function         Bfn.  Coefficient  Atom+Function  
  ----- ------------  ---------------      ----- ------------  ---------------
    79      0.347482   9 C  px               97      0.347482  11 C  px        
    78     -0.293184   9 C  s                96      0.293184  11 C  s         
    75      0.248363   9 C  px               93      0.248363  11 C  px        
    54      0.220374   6 C  pz              162      0.220374  18 C  pz        
     6      0.192328   1 C  s               177     -0.192328  20 C  s         
 
 Vector   62  Occ=0.000000D+00  E=-4.088284D-02
              MO Center=  1.9D-12, -1.3D-12,  2.5D-12, r^2= 6.4D+00
   Bfn.  Coefficient  Atom+Function         Bfn.  Coefficient  Atom+Function  
  ----- ------------  ---------------      ----- ------------  ---------------
    89     -0.296894  10 C  py              107     -0.296894  12 C  py        
    72      0.289968   8 C  pz              171      0.289968  19 C  pz        
    69     -0.254430   8 C  s               168      0.254430  19 C  s         
    62     -0.239311   7 C  py               87     -0.239415  10 C  s         
   105      0.239415  12 C  s               134     -0.239311  15 C  py        
 
 Vector   63  Occ=0.000000D+00  E=-4.088284D-02
              MO Center=  1.4D-12, -6.6D-13,  3.0D-12, r^2= 6.4D+00
   Bfn.  Coefficient  Atom+Function         Bfn.  Coefficient  Atom+Function  
  ----- ------------  ---------------      ----- ------------  ---------------
    16      0.325165   2 C  px              142      0.325165  16 C  px        
    15     -0.275465   2 C  s               141      0.275465  16 C  s         
    54     -0.263889   6 C  pz              162     -0.263889  18 C  pz        
    62     -0.237028   7 C  py              134     -0.237028  15 C  py        
    12      0.235199   2 C  px              138      0.235199  16 C  px        
 
 Vector   64  Occ=0.000000D+00  E= 8.457264D-02
              MO Center=  2.7D-11, -1.7D-12,  1.7D-11, r^2= 7.5D+00
   Bfn.  Coefficient  Atom+Function         Bfn.  Coefficient  Atom+Function  
  ----- ------------  ---------------      ----- ------------  ---------------
    16      0.403988   2 C  px              142      0.403988  16 C  px        
    62      0.307526   7 C  py              134      0.307526  15 C  py        
    89     -0.289265  10 C  py              107     -0.289265  12 C  py        
     7     -0.229766   1 C  px              178     -0.229766  20 C  px        
     8     -0.225627   1 C  py              179     -0.225627  20 C  py        
 
 Vector   65  Occ=0.000000D+00  E= 8.457264D-02
              MO Center=  3.0D-12, -3.6D-12,  3.7D-11, r^2= 7.5D+00
   Bfn.  Coefficient  Atom+Function         Bfn.  Coefficient  Atom+Function  
  ----- ------------  ---------------      ----- ------------  ---------------
    54      0.437984   6 C  pz              162      0.437984  18 C  pz        
    72     -0.349454   8 C  pz              171     -0.349454  19 C  pz        
    62     -0.230427   7 C  py              134     -0.230427  15 C  py        
    27     -0.227176   3 C  pz              117     -0.227176  13 C  pz        
    26      0.223179   3 C  py              116      0.223179  13 C  py        
 
 Vector   66  Occ=0.000000D+00  E= 8.457264D-02
              MO Center=  5.6D-12, -1.4D-12,  6.2D-12, r^2= 7.5D+00
   Bfn.  Coefficient  Atom+Function         Bfn.  Coefficient  Atom+Function  
  ----- ------------  ---------------      ----- ------------  ---------------
    79      0.367714   9 C  px               97      0.367714  11 C  px        
    89     -0.342330  10 C  py              107     -0.342330  12 C  py        
    43     -0.259848   5 C  px              124     -0.259848  14 C  px        
    44      0.258431   5 C  py              125      0.258431  14 C  py        
    45      0.256654   5 C  pz              126      0.256654  14 C  pz        
 
 Vector   67  Occ=0.000000D+00  E= 1.302990D-01
              MO Center= -9.9D-12,  4.3D-12, -2.9D-11, r^2= 7.3D+00
   Bfn.  Coefficient  Atom+Function         Bfn.  Coefficient  Atom+Function  
  ----- ------------  ---------------      ----- ------------  ---------------
    54      0.369199   6 C  pz               72     -0.369199   8 C  pz        
   162     -0.369199  18 C  pz              171      0.369199  19 C  pz        
    62     -0.353483   7 C  py               89     -0.353483  10 C  py        
   107      0.353483  12 C  py              134      0.353483  15 C  py        
     7      0.221912   1 C  px                9      0.222025   1 C  pz        
 
 Vector   68  Occ=0.000000D+00  E= 1.302990D-01
              MO Center= -2.1D-11,  2.2D-12, -6.1D-12, r^2= 7.3D+00
   Bfn.  Coefficient  Atom+Function         Bfn.  Coefficient  Atom+Function  
  ----- ------------  ---------------      ----- ------------  ---------------
    16      0.474461   2 C  px               79     -0.474461   9 C  px        
    97      0.474461  11 C  px              142     -0.474461  16 C  px        
    15     -0.275914   2 C  s                78      0.275914   9 C  s         
    96      0.275914  11 C  s               141     -0.275914  16 C  s         
    26     -0.217593   3 C  py              116      0.217593  13 C  py        
 
 Vector   69  Occ=0.000000D+00  E= 1.302990D-01
              MO Center=  1.8D-12,  2.8D-12, -1.4D-11, r^2= 7.3D+00
   Bfn.  Coefficient  Atom+Function         Bfn.  Coefficient  Atom+Function  
  ----- ------------  ---------------      ----- ------------  ---------------
    54      0.339908   6 C  pz               72     -0.339908   8 C  pz        
   162     -0.339908  18 C  pz              171      0.339908  19 C  pz        
    62      0.333444   7 C  py               89      0.333444  10 C  py        
   107     -0.333444  12 C  py              134     -0.333444  15 C  py        
    43     -0.250417   5 C  px               45      0.250476   5 C  pz        
 
 Vector   70  Occ=0.000000D+00  E= 1.339213D-01
              MO Center= -9.1D-12,  1.4D-12, -1.5D-11, r^2= 7.3D+00
   Bfn.  Coefficient  Atom+Function         Bfn.  Coefficient  Atom+Function  
  ----- ------------  ---------------      ----- ------------  ---------------
    16      0.223702   2 C  px               54      0.223702   6 C  pz        
    62      0.223702   7 C  py               72      0.223702   8 C  pz        
    79      0.223702   9 C  px               89     -0.223702  10 C  py        
    97     -0.223702  11 C  px              107      0.223702  12 C  py        
   134     -0.223702  15 C  py              142     -0.223702  16 C  px        
 
 Vector   71  Occ=0.000000D+00  E= 2.443957D-01
              MO Center=  5.3D-12, -2.5D-12,  5.0D-12, r^2= 6.4D+00
   Bfn.  Coefficient  Atom+Function         Bfn.  Coefficient  Atom+Function  
  ----- ------------  ---------------      ----- ------------  ---------------
    42      0.600972   5 C  s               123     -0.600972  14 C  s         
    78     -0.514046   9 C  s                96      0.514046  11 C  s         
    69      0.455199   8 C  s               168     -0.455199  19 C  s         
    18     -0.384306   2 C  pz              144     -0.384306  16 C  pz        
    36     -0.373120   4 C  pz              153     -0.373120  17 C  pz        
 
 Vector   72  Occ=0.000000D+00  E= 2.443957D-01
              MO Center=  8.0D-12, -1.3D-12,  5.4D-12, r^2= 6.4D+00
   Bfn.  Coefficient  Atom+Function         Bfn.  Coefficient  Atom+Function  
  ----- ------------  ---------------      ----- ------------  ---------------
    60      0.571554   7 C  s               132     -0.571554  15 C  s         
    24     -0.518228   3 C  s               114      0.518228  13 C  s         
    17     -0.451952   2 C  py               80     -0.451952   9 C  py        
    98     -0.451952  11 C  py              143     -0.451952  16 C  py        
    71     -0.445973   8 C  py              170     -0.445973  19 C  py        
 
 Vector   73  Occ=0.000000D+00  E= 2.443957D-01
              MO Center=  5.7D-12, -2.9D-12, -2.5D-12, r^2= 6.4D+00
   Bfn.  Coefficient  Atom+Function         Bfn.  Coefficient  Atom+Function  
  ----- ------------  ---------------      ----- ------------  ---------------
    15      0.560490   2 C  s               141     -0.560490  16 C  s         
    33      0.509419   4 C  s               150     -0.509419  17 C  s         
     6      0.500286   1 C  s               177     -0.500286  20 C  s         
    81     -0.406009   9 C  pz               99     -0.406009  11 C  pz        
    51      0.383171   6 C  s               159     -0.383171  18 C  s         
 
 Vector   74  Occ=0.000000D+00  E= 3.780267D-01
              MO Center=  3.5D-10, -1.3D-10,  6.1D-12, r^2= 8.4D+00
   Bfn.  Coefficient  Atom+Function         Bfn.  Coefficient  Atom+Function  
  ----- ------------  ---------------      ----- ------------  ---------------
    24      2.759505   3 C  s               114     -2.759505  13 C  s         
    51     -2.649863   6 C  s               159      2.649863  18 C  s         
    60      2.621881   7 C  s               132     -2.621881  15 C  s         
     6     -2.504595   1 C  s                69      2.493319   8 C  s         
   168     -2.493319  19 C  s               177      2.504595  20 C  s         
 
 Vector   75  Occ=0.000000D+00  E= 3.780267D-01
              MO Center= -1.6D-11,  6.4D-11, -3.7D-11, r^2= 8.4D+00
   Bfn.  Coefficient  Atom+Function         Bfn.  Coefficient  Atom+Function  
  ----- ------------  ---------------      ----- ------------  ---------------
    78      3.154021   9 C  s                96     -3.154021  11 C  s         
    42      2.813887   5 C  s               123     -2.813887  14 C  s         
    15     -2.466257   2 C  s               141      2.466257  16 C  s         
    69     -1.870934   8 C  s               168      1.870934  19 C  s         
    24      1.823998   3 C  s               114     -1.823998  13 C  s         
 
 Vector   76  Occ=0.000000D+00  E= 3.780267D-01
              MO Center= -1.5D-10, -1.3D-10,  1.0D-10, r^2= 8.4D+00
   Bfn.  Coefficient  Atom+Function         Bfn.  Coefficient  Atom+Function  
  ----- ------------  ---------------      ----- ------------  ---------------
    33      3.154529   4 C  s               150     -3.154529  17 C  s         
    87     -2.974487  10 C  s               105      2.974487  12 C  s         
    15     -2.106543   2 C  s               141      2.106543  16 C  s         
    51     -1.895877   6 C  s               159      1.895877  18 C  s         
    60     -1.864619   7 C  s               132      1.864619  15 C  s         
 
 Vector   77  Occ=0.000000D+00  E= 3.872383D-01
              MO Center= -1.2D-10,  8.1D-11, -8.2D-11, r^2= 6.7D+00
   Bfn.  Coefficient  Atom+Function         Bfn.  Coefficient  Atom+Function  
  ----- ------------  ---------------      ----- ------------  ---------------
    42      1.140994   5 C  s               123      1.140994  14 C  s         
    24     -0.908414   3 C  s               114     -0.908414  13 C  s         
    53     -0.700306   6 C  py               71     -0.700306   8 C  py        
   161      0.700306  18 C  py              170      0.700306  19 C  py        
    61      0.693776   7 C  px               88     -0.693776  10 C  px        
 
 Vector   78  Occ=0.000000D+00  E= 3.872383D-01
              MO Center=  5.6D-12, -3.1D-12, -9.3D-11, r^2= 6.7D+00
   Bfn.  Coefficient  Atom+Function         Bfn.  Coefficient  Atom+Function  
  ----- ------------  ---------------      ----- ------------  ---------------
    18      0.982843   2 C  pz               81      0.982843   9 C  pz        
    99     -0.982843  11 C  pz              144     -0.982843  16 C  pz        
    24      0.886021   3 C  s               114      0.886021  13 C  s         
     6     -0.803197   1 C  s                15     -0.804963   2 C  s         
    78      0.804963   9 C  s                96      0.804963  11 C  s         
 
 Vector   79  Occ=0.000000D+00  E= 3.872383D-01
              MO Center= -9.9D-11, -3.4D-11,  4.6D-11, r^2= 6.7D+00
   Bfn.  Coefficient  Atom+Function         Bfn.  Coefficient  Atom+Function  
  ----- ------------  ---------------      ----- ------------  ---------------
    33      1.090525   4 C  s               150      1.090525  17 C  s         
     6     -0.978814   1 C  s               177     -0.978814  20 C  s         
    61      0.715741   7 C  px               88     -0.715741  10 C  px        
   106      0.715741  12 C  px              133     -0.715741  15 C  px        
    53      0.691899   6 C  py               71      0.691899   8 C  py        
 
 Vector   80  Occ=0.000000D+00  E= 3.949579D-01
              MO Center=  1.0D-11,  8.1D-12,  1.1D-10, r^2= 7.1D+00
   Bfn.  Coefficient  Atom+Function         Bfn.  Coefficient  Atom+Function  
  ----- ------------  ---------------      ----- ------------  ---------------
    60      1.395383   7 C  s                87      1.395383  10 C  s         
   105      1.395383  12 C  s               132      1.395383  15 C  s         
    51     -0.848757   6 C  s                69     -0.848757   8 C  s         
   159     -0.848757  18 C  s               168     -0.848757  19 C  s         
     9      0.583587   1 C  pz               27      0.583587   3 C  pz        
 
 Vector   81  Occ=0.000000D+00  E= 3.949579D-01
              MO Center=  1.0D-10,  1.1D-10,  4.6D-12, r^2= 7.1D+00
   Bfn.  Coefficient  Atom+Function         Bfn.  Coefficient  Atom+Function  
  ----- ------------  ---------------      ----- ------------  ---------------
    15      1.295655   2 C  s                78      1.295655   9 C  s         
    96      1.295655  11 C  s               141      1.295655  16 C  s         
    51     -1.121219   6 C  s                69     -1.121219   8 C  s         
   159     -1.121219  18 C  s               168     -1.121219  19 C  s         
     7     -0.647349   1 C  px               25      0.647349   3 C  px        
 
 Vector   82  Occ=0.000000D+00  E= 3.954923D-01
              MO Center= -4.1D-11,  3.7D-12, -3.1D-11, r^2= 6.7D+00
   Bfn.  Coefficient  Atom+Function         Bfn.  Coefficient  Atom+Function  
  ----- ------------  ---------------      ----- ------------  ---------------
    42      1.147976   5 C  s               123      1.147976  14 C  s         
    80      0.771096   9 C  py               98     -0.771096  11 C  py        
    90      0.667325  10 C  pz              108     -0.667325  12 C  pz        
    24     -0.651218   3 C  s               114     -0.651218  13 C  s         
    35      0.614610   4 C  py              152     -0.614610  17 C  py        
 
 Vector   83  Occ=0.000000D+00  E= 3.954923D-01
              MO Center= -4.7D-11,  1.8D-11, -9.4D-12, r^2= 6.7D+00
   Bfn.  Coefficient  Atom+Function         Bfn.  Coefficient  Atom+Function  
  ----- ------------  ---------------      ----- ------------  ---------------
    24      0.984830   3 C  s               114      0.984830  13 C  s         
    52      0.896582   6 C  px              160     -0.896582  18 C  px        
    70      0.722954   8 C  px              169     -0.722954  19 C  px        
    33     -0.696081   4 C  s               150     -0.696081  17 C  s         
    43      0.634147   5 C  px              124     -0.634147  14 C  px        
 
 Vector   84  Occ=0.000000D+00  E= 3.954923D-01
              MO Center= -7.5D-11, -2.3D-11,  3.2D-11, r^2= 6.7D+00
   Bfn.  Coefficient  Atom+Function         Bfn.  Coefficient  Atom+Function  
  ----- ------------  ---------------      ----- ------------  ---------------
     6      0.999427   1 C  s               177      0.999427  20 C  s         
    33     -0.928221   4 C  s               150     -0.928221  17 C  s         
    17     -0.801842   2 C  py              143      0.801842  16 C  py        
    63     -0.653836   7 C  pz              135      0.653836  15 C  pz        
    26      0.627233   3 C  py              116     -0.627233  13 C  py        
 
 Vector   85  Occ=0.000000D+00  E= 5.322879D-01
              MO Center= -1.0D-11,  1.2D-11,  2.0D-11, r^2= 8.7D+00
   Bfn.  Coefficient  Atom+Function         Bfn.  Coefficient  Atom+Function  
  ----- ------------  ---------------      ----- ------------  ---------------
     6      2.484964   1 C  s                24      2.484964   3 C  s         
    33      2.484964   4 C  s                42      2.484964   5 C  s         
   114      2.484964  13 C  s               123      2.484964  14 C  s         
   150      2.484964  17 C  s               177      2.484964  20 C  s         
    15     -1.640892   2 C  s                51     -1.640892   6 C  s         
 

 center of mass
 --------------
 x =   0.00000000 y =   0.00000000 z =   0.00000000

 moments of inertia (a.u.)
 ------------------
        2348.971705503405           0.000000000000          -0.000000000000
           0.000000000000        2348.971705503405           0.000000000000
          -0.000000000000           0.000000000000        2348.971705503405
 
  Mulliken analysis of the total density
  --------------------------------------

    Atom       Charge   Shell Charges
 -----------   ------   -------------------------------------------------------
    1 C    6     6.03   2.00  0.64  2.03  0.55  0.82
    2 C    6     5.98   2.00  0.67  1.95  0.63  0.74
    3 C    6     6.03   2.00  0.64  2.03  0.55  0.82
    4 C    6     6.03   2.00  0.64  2.03  0.55  0.82
    5 C    6     6.03   2.00  0.64  2.03  0.55  0.82
    6 C    6     5.98   2.00  0.67  1.95  0.63  0.74
    7 C    6     5.98   2.00  0.67  1.95  0.63  0.74
    8 C    6     5.98   2.00  0.67  1.95  0.63  0.74
    9 C    6     5.98   2.00  0.67  1.95  0.63  0.74
   10 C    6     5.98   2.00  0.67  1.95  0.63  0.74
   11 C    6     5.98   2.00  0.67  1.95  0.63  0.74
   12 C    6     5.98   2.00  0.67  1.95  0.63  0.74
   13 C    6     6.03   2.00  0.64  2.03  0.55  0.82
   14 C    6     6.03   2.00  0.64  2.03  0.55  0.82
   15 C    6     5.98   2.00  0.67  1.95  0.63  0.74
   16 C    6     5.98   2.00  0.67  1.95  0.63  0.74
   17 C    6     6.03   2.00  0.64  2.03  0.55  0.82
   18 C    6     5.98   2.00  0.67  1.95  0.63  0.74
   19 C    6     5.98   2.00  0.67  1.95  0.63  0.74
   20 C    6     6.03   2.00  0.64  2.03  0.55  0.82
 
       Multipole analysis of the density wrt the origin
       ------------------------------------------------
 
     L   x y z        total         open         nuclear
     -   - - -        -----         ----         -------
     0   0 0 0     -0.000000      0.000000    120.000000
 
     1   1 0 0      0.000000      0.000000      0.000000
     1   0 1 0     -0.000000      0.000000      0.000000
     1   0 0 1      0.000000      0.000000      0.000000
 
     2   2 0 0    -87.309284      0.000000    587.242926
     2   1 1 0      0.000000      0.000000      0.000000
     2   1 0 1      0.000000      0.000000      0.000000
     2   0 2 0    -87.309284      0.000000    587.242926
     2   0 1 1     -0.000000      0.000000      0.000000
     2   0 0 2    -87.309284      0.000000    587.242926
 

 Task  times  cpu:     1699.3s     wall:     1652.5s
 
 
                                NWChem Input Module
                                -------------------
 
 
 Summary of allocated global arrays
-----------------------------------
  No active global arrays



                         GA Statistics for process    0
                         ------------------------------

       create   destroy   get      put      acc     scatter   gather  read&inc
calls:  425      425     3.08e+04 2.17e+04 2.31e+04    0        0      494     
number of processes/call 1.00e+00 1.00e+00 1.00e+00 0.00e+00 0.00e+00
bytes total:             1.48e+08 9.70e+07 2.10e+07 0.00e+00 0.00e+00 3.95e+03
bytes remote:            0.00e+00 0.00e+00 0.00e+00 0.00e+00 0.00e+00 0.00e+00
Max memory consumed for GA by this process: 3715200 bytes
 
MA_summarize_allocated_blocks: starting scan ...
MA_summarize_allocated_blocks: scan completed: 0 heap blocks, 0 stack blocks
MA usage statistics:

	allocation statistics:
					      heap	     stack
					      ----	     -----
	current number of blocks	         0	         0
	maximum number of blocks	        13	        16
	current total bytes		         0	         0
	maximum total bytes		     80096	  22513608
	maximum total K-bytes		        81	     22514
	maximum total M-bytes		         1	        23
 
 
                                     CITATION
                                     --------
                Please cite the following reference when publishing
                           results obtained with NWChem:
 
                 M. Valiev, E.J. Bylaska, N. Govind, K. Kowalski,
              T.P. Straatsma, H.J.J. van Dam, D. Wang, J. Nieplocha,
                        E. Apra, T.L. Windus, W.A. de Jong
                 "NWChem: a comprehensive and scalable open-source
                  solution for large scale molecular simulations"
                      Comput. Phys. Commun. 181, 1477 (2010)
                           doi:10.1016/j.cpc.2010.04.018
 
                              AUTHORS & CONTRIBUTORS
                              ----------------------
          E. Apra, E. J. Bylaska, W. A. de Jong, N. Govind, K. Kowalski,
       T. P. Straatsma, M. Valiev, H. J. J. van Dam, D. Wang, T. L. Windus,
        J. Hammond, J. Autschbach, K. Bhaskaran-Nair, J. Brabec, K. Lopata,
     F. Aquino, S. Hirata, M. T. Hackler, T. Risthaus, M. Malagoli,J. Mullin,
        P. Nichols, R. Peverati, J. Pittner, Y. Zhao, P.-D. Fan, A. Fonari,
     R. J. Harrison, M. Dupuis, D. Silverstein, D. M. A. Smith, J. Nieplocha,
        V. Tipparaju, M. Krishnan, B. E. Van Kuiken, A. Vazquez-Mayagoitia,
        L. Jensen, M. Swart, Q. Wu, T. Van Voorhis, A. A. Auer, M. Nooijen,
      L. D. Crosby, E. Brown, G. Cisneros, G. I. Fann, H. Fruchtl, J. Garza,
   K. Hirao, R. Kendall, J. A. Nichols, K. Tsemekhman, K. Wolinski, J. Anchell,
       D. Bernholdt, P. Borowski, T. Clark, D. Clerc, H. Dachsel, M. Deegan,
        K. Dyall, D. Elwood, E. Glendening, M. Gutowski, A. Hess, J. Jaffe,
   B. Johnson, J. Ju, R. Kobayashi, R. Kutteh, Z. Lin, R. Littlefield, X. Long,
        B. Meng, T. Nakajima, S. Niu, L. Pollack, M. Rosing, K. Glaesemann,
      G. Sandrone, M. Stave, H. Taylor, G. Thomas, J. H. van Lenthe, A. Wong,
                                     Z. Zhang.

 Total times  cpu:     1699.4s     wall:     1652.5s
