 argument  1 = profile.nw
 


============================== echo of input deck ==============================
echo

start profile

permanent_dir /tmp
scratch_dir /tmp

memory stack 2000 mb heap 180 mb global 1000 mb noverify

geometry noautosym noautoz
  C     1.170639    1.170639    1.170639
  C     1.894104    0.000000    0.723495
  C    -1.170639   -1.170639    1.170639
  C     1.170639   -1.170639    1.170639
  C    -1.170639    1.170639    1.170639
  C     0.000000   -0.723495    1.894104
  C     0.723495    1.894104    0.000000
  C     0.000000    0.723495    1.894104
  C     1.894104    0.000000   -0.723495
  C     0.723495   -1.894104    0.000000
  C    -1.894104    0.000000    0.723495
  C    -0.723495    1.894104    0.000000
  C     1.170639    1.170639   -1.170639
  C     1.170639   -1.170639   -1.170639
  C    -0.723495   -1.894104    0.000000
  C    -1.894104    0.000000   -0.723495
  C    -1.170639    1.170639   -1.170639
  C     0.000000    0.723495   -1.894104
  C     0.000000   -0.723495   -1.894104
  C    -1.170639   -1.170639   -1.170639
end

basis dz spherical
  * library 6-31G
end

basis pvdz spherical
  * library cc-pvdz
end

basis pvtz spherical
  * library cc-pvtz
end

set "ao basis" dz

scf
  rhf
  singlet
  thresh 1.0e-7
  direct
end

dft
  xc b3lyp
  direct
end

task scf energy
================================================================================


                                         
                                         
 
 
              Northwest Computational Chemistry Package (NWChem) 6.3
              ------------------------------------------------------
 
 
                    Environmental Molecular Sciences Laboratory
                       Pacific Northwest National Laboratory
                                Richland, WA 99352
 
                              Copyright (c) 1994-2013
                       Pacific Northwest National Laboratory
                            Battelle Memorial Institute
 
             NWChem is an open-source computational chemistry package
                        distributed under the terms of the
                      Educational Community License (ECL) 2.0
             A copy of the license is included with this distribution
                              in the LICENSE.TXT file
 
                                  ACKNOWLEDGMENT
                                  --------------

            This software and its documentation were developed at the
            EMSL at Pacific Northwest National Laboratory, a multiprogram
            national laboratory, operated for the U.S. Department of Energy
            by Battelle under Contract Number DE-AC05-76RL01830. Support
            for this work was provided by the Department of Energy Office
            of Biological and Environmental Research, Office of Basic
            Energy Sciences, and the Office of Advanced Scientific Computing.


           Job information
           ---------------

    hostname        = protos.mcs.anl.gov
    program         = /home/jhammond/NWCHEM/bin/nwchem-18feb2014-mkl-gprof
    date            = Tue Feb 18 15:26:44 2014

    compiled        = Tue_Feb_18_14:34:23_2014
    source          = /home/jhammond/NWCHEM/nwchem-trunk
    nwchem branch   = Development
    nwchem revision = 25267
    ga revision     = 10402
    input           = profile.nw
    prefix          = profile.
    data base       = /tmp/profile.db
    status          = startup
    nproc           =        1
    time left       =     -1s



           Memory information
           ------------------

    heap     =   23592961 doubles =    180.0 Mbytes
    stack    =  262144001 doubles =   2000.0 Mbytes
    global   =  131072000 doubles =   1000.0 Mbytes (distinct from heap & stack)
    total    =  416808962 doubles =   3180.0 Mbytes
    verify   = no 
    hardfail = no 


           Directory information
           ---------------------
 
  0 permanent = /tmp
  0 scratch   = /tmp
 
 
 
 
                                NWChem Input Module
                                -------------------
 
 

 Scaling coordinates for geometry "geometry" by  1.889725989
 (inverse scale =  0.529177249)

 
 
                             Geometry "geometry" -> ""
                             -------------------------
 
 Output coordinates in angstroms (scale by  1.889725989 to convert to a.u.)
 
  No.       Tag          Charge          X              Y              Z
 ---- ---------------- ---------- -------------- -------------- --------------
    1 C                    6.0000     1.17063900     1.17063900     1.17063900
    2 C                    6.0000     1.89410400     0.00000000     0.72349500
    3 C                    6.0000    -1.17063900    -1.17063900     1.17063900
    4 C                    6.0000     1.17063900    -1.17063900     1.17063900
    5 C                    6.0000    -1.17063900     1.17063900     1.17063900
    6 C                    6.0000     0.00000000    -0.72349500     1.89410400
    7 C                    6.0000     0.72349500     1.89410400     0.00000000
    8 C                    6.0000     0.00000000     0.72349500     1.89410400
    9 C                    6.0000     1.89410400     0.00000000    -0.72349500
   10 C                    6.0000     0.72349500    -1.89410400     0.00000000
   11 C                    6.0000    -1.89410400     0.00000000     0.72349500
   12 C                    6.0000    -0.72349500     1.89410400     0.00000000
   13 C                    6.0000     1.17063900     1.17063900    -1.17063900
   14 C                    6.0000     1.17063900    -1.17063900    -1.17063900
   15 C                    6.0000    -0.72349500    -1.89410400     0.00000000
   16 C                    6.0000    -1.89410400     0.00000000    -0.72349500
   17 C                    6.0000    -1.17063900     1.17063900    -1.17063900
   18 C                    6.0000     0.00000000     0.72349500    -1.89410400
   19 C                    6.0000     0.00000000    -0.72349500    -1.89410400
   20 C                    6.0000    -1.17063900    -1.17063900    -1.17063900
 
      Atomic Mass 
      ----------- 
 
      C                 12.000000
 

 Effective nuclear repulsion energy (a.u.)    1426.2360984021

            Nuclear Dipole moment (a.u.) 
            ----------------------------
        X                 Y               Z
 ---------------- ---------------- ----------------
     0.0000000000     0.0000000000     0.0000000000
 
 
            XYZ format geometry
            -------------------
    20
 geometry
 C                     1.17063900     1.17063900     1.17063900
 C                     1.89410400     0.00000000     0.72349500
 C                    -1.17063900    -1.17063900     1.17063900
 C                     1.17063900    -1.17063900     1.17063900
 C                    -1.17063900     1.17063900     1.17063900
 C                     0.00000000    -0.72349500     1.89410400
 C                     0.72349500     1.89410400     0.00000000
 C                     0.00000000     0.72349500     1.89410400
 C                     1.89410400     0.00000000    -0.72349500
 C                     0.72349500    -1.89410400     0.00000000
 C                    -1.89410400     0.00000000     0.72349500
 C                    -0.72349500     1.89410400     0.00000000
 C                     1.17063900     1.17063900    -1.17063900
 C                     1.17063900    -1.17063900    -1.17063900
 C                    -0.72349500    -1.89410400     0.00000000
 C                    -1.89410400     0.00000000    -0.72349500
 C                    -1.17063900     1.17063900    -1.17063900
 C                     0.00000000     0.72349500    -1.89410400
 C                     0.00000000    -0.72349500    -1.89410400
 C                    -1.17063900    -1.17063900    -1.17063900
 
 ==============================================================================
                                internuclear distances
 ------------------------------------------------------------------------------
       center one      |      center two      | atomic units |  angstroms
 ------------------------------------------------------------------------------
    2 C                |   1 C                |     2.73439  |     1.44697
    4 C                |   2 C                |     2.73439  |     1.44697
    6 C                |   3 C                |     2.73439  |     1.44697
    6 C                |   4 C                |     2.73439  |     1.44697
    7 C                |   1 C                |     2.73439  |     1.44697
    8 C                |   1 C                |     2.73439  |     1.44697
    8 C                |   5 C                |     2.73439  |     1.44697
    8 C                |   6 C                |     2.73441  |     1.44699
    9 C                |   2 C                |     2.73441  |     1.44699
   10 C                |   4 C                |     2.73439  |     1.44697
   11 C                |   3 C                |     2.73439  |     1.44697
   11 C                |   5 C                |     2.73439  |     1.44697
   12 C                |   5 C                |     2.73439  |     1.44697
   12 C                |   7 C                |     2.73441  |     1.44699
   13 C                |   7 C                |     2.73439  |     1.44697
   13 C                |   9 C                |     2.73439  |     1.44697
   14 C                |   9 C                |     2.73439  |     1.44697
   14 C                |  10 C                |     2.73439  |     1.44697
   15 C                |   3 C                |     2.73439  |     1.44697
   15 C                |  10 C                |     2.73441  |     1.44699
   16 C                |  11 C                |     2.73441  |     1.44699
   17 C                |  12 C                |     2.73439  |     1.44697
   17 C                |  16 C                |     2.73439  |     1.44697
   18 C                |  13 C                |     2.73439  |     1.44697
   18 C                |  17 C                |     2.73439  |     1.44697
   19 C                |  14 C                |     2.73439  |     1.44697
   19 C                |  18 C                |     2.73441  |     1.44699
   20 C                |  15 C                |     2.73439  |     1.44697
   20 C                |  16 C                |     2.73439  |     1.44697
   20 C                |  19 C                |     2.73439  |     1.44697
 ------------------------------------------------------------------------------
                         number of included internuclear distances:         30
 ==============================================================================



 ==============================================================================
                                 internuclear angles
 ------------------------------------------------------------------------------
        center 1       |       center 2       |       center 3       |  degrees
 ------------------------------------------------------------------------------
    2 C                |   1 C                |   7 C                |   108.00
    2 C                |   1 C                |   8 C                |   108.00
    7 C                |   1 C                |   8 C                |   108.00
    1 C                |   2 C                |   4 C                |   108.00
    1 C                |   2 C                |   9 C                |   108.00
    4 C                |   2 C                |   9 C                |   108.00
    6 C                |   3 C                |  11 C                |   108.00
    6 C                |   3 C                |  15 C                |   108.00
   11 C                |   3 C                |  15 C                |   108.00
    2 C                |   4 C                |   6 C                |   108.00
    2 C                |   4 C                |  10 C                |   108.00
    6 C                |   4 C                |  10 C                |   108.00
    8 C                |   5 C                |  11 C                |   108.00
    8 C                |   5 C                |  12 C                |   108.00
   11 C                |   5 C                |  12 C                |   108.00
    3 C                |   6 C                |   4 C                |   108.00
    3 C                |   6 C                |   8 C                |   108.00
    4 C                |   6 C                |   8 C                |   108.00
    1 C                |   7 C                |  12 C                |   108.00
    1 C                |   7 C                |  13 C                |   108.00
   12 C                |   7 C                |  13 C                |   108.00
    1 C                |   8 C                |   5 C                |   108.00
    1 C                |   8 C                |   6 C                |   108.00
    5 C                |   8 C                |   6 C                |   108.00
    2 C                |   9 C                |  13 C                |   108.00
    2 C                |   9 C                |  14 C                |   108.00
   13 C                |   9 C                |  14 C                |   108.00
    4 C                |  10 C                |  14 C                |   108.00
    4 C                |  10 C                |  15 C                |   108.00
   14 C                |  10 C                |  15 C                |   108.00
    3 C                |  11 C                |   5 C                |   108.00
    3 C                |  11 C                |  16 C                |   108.00
    5 C                |  11 C                |  16 C                |   108.00
    5 C                |  12 C                |   7 C                |   108.00
    5 C                |  12 C                |  17 C                |   108.00
    7 C                |  12 C                |  17 C                |   108.00
    7 C                |  13 C                |   9 C                |   108.00
    7 C                |  13 C                |  18 C                |   108.00
    9 C                |  13 C                |  18 C                |   108.00
    9 C                |  14 C                |  10 C                |   108.00
    9 C                |  14 C                |  19 C                |   108.00
   10 C                |  14 C                |  19 C                |   108.00
    3 C                |  15 C                |  10 C                |   108.00
    3 C                |  15 C                |  20 C                |   108.00
   10 C                |  15 C                |  20 C                |   108.00
   11 C                |  16 C                |  17 C                |   108.00
   11 C                |  16 C                |  20 C                |   108.00
   17 C                |  16 C                |  20 C                |   108.00
   12 C                |  17 C                |  16 C                |   108.00
   12 C                |  17 C                |  18 C                |   108.00
   16 C                |  17 C                |  18 C                |   108.00
   13 C                |  18 C                |  17 C                |   108.00
   13 C                |  18 C                |  19 C                |   108.00
   17 C                |  18 C                |  19 C                |   108.00
   14 C                |  19 C                |  18 C                |   108.00
   14 C                |  19 C                |  20 C                |   108.00
   18 C                |  19 C                |  20 C                |   108.00
   15 C                |  20 C                |  16 C                |   108.00
   15 C                |  20 C                |  19 C                |   108.00
   16 C                |  20 C                |  19 C                |   108.00
 ------------------------------------------------------------------------------
                            number of included internuclear angles:         60
 ==============================================================================





 Summary of "dz" -> "" (spherical)
 ------------------------------------------------------------------------------
       Tag                 Description            Shells   Functions and Types
 ---------------- ------------------------------  ------  ---------------------
 *                           6-31G                    on all atoms 




 Summary of "pvdz" -> "" (spherical)
 ------------------------------------------------------------------------------
       Tag                 Description            Shells   Functions and Types
 ---------------- ------------------------------  ------  ---------------------
 *                          cc-pvdz                   on all atoms 




 Summary of "pvtz" -> "" (spherical)
 ------------------------------------------------------------------------------
       Tag                 Description            Shells   Functions and Types
 ---------------- ------------------------------  ------  ---------------------
 *                          cc-pvtz                   on all atoms 


                      Basis "ao basis" -> "dz" (spherical)
                      -----
  C (Carbon)
  ----------
            Exponent  Coefficients 
       -------------- ---------------------------------------------------------
  1 S  3.04752490E+03  0.001835
  1 S  4.57369510E+02  0.014037
  1 S  1.03948690E+02  0.068843
  1 S  2.92101550E+01  0.232184
  1 S  9.28666300E+00  0.467941
  1 S  3.16392700E+00  0.362312
 
  2 S  7.86827240E+00 -0.119332
  2 S  1.88128850E+00 -0.160854
  2 S  5.44249300E-01  1.143456
 
  3 P  7.86827240E+00  0.068999
  3 P  1.88128850E+00  0.316424
  3 P  5.44249300E-01  0.744308
 
  4 S  1.68714400E-01  1.000000
 
  5 P  1.68714400E-01  1.000000
 


 Summary of "ao basis" -> "dz" (spherical)
 ------------------------------------------------------------------------------
       Tag                 Description            Shells   Functions and Types
 ---------------- ------------------------------  ------  ---------------------
 C                           6-31G                   5        9   3s2p


                                 NWChem SCF Module
                                 -----------------
 
 

  ao basis        = "dz"
  functions       =   180
  atoms           =    20
  closed shells   =    60
  open shells     =     0
  charge          =   0.00
  wavefunction    = RHF 
  input vectors   = atomic
  output vectors  = /tmp/profile.movecs
  use symmetry    = F
  symmetry adapt  = F


 Summary of "ao basis" -> "dz" (spherical)
 ------------------------------------------------------------------------------
       Tag                 Description            Shells   Functions and Types
 ---------------- ------------------------------  ------  ---------------------
 C                           6-31G                   5        9   3s2p



 Forming initial guess at       0.4s

 
      Superposition of Atomic Density Guess
      -------------------------------------
 
 Sum of atomic energies:        -753.20508297
 
      Non-variational initial energy
      ------------------------------

 Total energy =    -769.423238
 1-e energy   =   -3854.063676
 2-e energy   =    1658.404340
 HOMO         =      -0.066876
 LUMO         =      -0.066860
 

 Starting SCF solution at       8.4s



 ----------------------------------------------
         Quadratically convergent ROHF

 Convergence threshold     :          1.000E-07
 Maximum no. of iterations :           30
 Final Fock-matrix accuracy:          1.000E-09
 ----------------------------------------------


              iter       energy          gnorm     gmax       time
             ----- ------------------- --------- --------- --------
                 1     -755.9201617023  1.40D+00  3.38D-01     47.9
                 2     -756.1317560861  4.93D-01  8.67D-02     85.4
  ga_iter_lsolve: convergence stagnant ... aborting solve

 Disabled NR: increased maxiter to  40

                 3     -756.1532036736  1.71D-01  4.01D-02    174.2
                 4     -756.1564171935  2.67D-02  3.37D-03    211.8
                 5     -756.1564998491  1.06D-02  2.18D-03    249.2
                 6     -756.1565220942  5.41D-03  9.89D-04    323.5
                 7     -756.1565250166  8.65D-04  1.53D-04    360.4
                 8     -756.1565250961  1.30D-04  3.02D-05    434.0
                 9     -756.1565250977  5.57D-05  7.31D-06    470.6
                10     -756.1565250980  2.05D-05  4.05D-06    545.9
                11     -756.1565250981  6.58D-06  1.22D-06    583.4
                12     -756.1565250981  1.78D-06  3.75D-07    620.8
                13     -756.1565250981  4.74D-07  8.03D-08    658.0
                14     -756.1565250981  1.99D-07  3.74D-08    695.0
                15     -756.1565250980  6.48D-08  1.29D-08    768.6


       Final RHF  results 
       ------------------ 

         Total SCF energy =   -756.156525098050
      One-electron energy =  -3852.428196381825
      Two-electron energy =   1670.035572881718
 Nuclear repulsion energy =   1426.236098402058

        Time for solution =    757.4s


             Final eigenvalues
             -----------------

              1      
    1  -11.3416
    2  -11.3416
    3  -11.3416
    4  -11.3416
    5  -11.3416
    6  -11.3416
    7  -11.3407
    8  -11.3407
    9  -11.3407
   10  -11.3407
   11  -11.3407
   12  -11.3407
   13  -11.2989
   14  -11.2988
   15  -11.2988
   16  -11.2988
   17  -11.2987
   18  -11.2987
   19  -11.2987
   20  -11.2987
   21   -1.3815
   22   -1.2741
   23   -1.2741
   24   -1.2741
   25   -1.1016
   26   -1.1016
   27   -1.0934
   28   -1.0934
   29   -1.0934
   30   -0.9035
   31   -0.9035
   32   -0.9035
   33   -0.9001
   34   -0.8460
   35   -0.8460
   36   -0.8460
   37   -0.7001
   38   -0.6879
   39   -0.6879
   40   -0.6879
   41   -0.6644
   42   -0.6259
   43   -0.6259
   44   -0.6187
   45   -0.6187
   46   -0.6187
   47   -0.5525
   48   -0.5525
   49   -0.5525
   50   -0.5376
   51   -0.5376
   52   -0.5376
   53   -0.5296
   54   -0.5296
   55   -0.3622
   56   -0.3622
   57   -0.3622
   58   -0.3406
   59   -0.3406
   60   -0.2252
   61   -0.0409
   62   -0.0409
   63   -0.0409
   64    0.0846
   65    0.0846
   66    0.0846
   67    0.1303
   68    0.1303
   69    0.1303
   70    0.1339
 
                       ROHF Final Molecular Orbital Analysis
                       -------------------------------------
 
 Vector   21  Occ=2.000000D+00  E=-1.381493D+00
              MO Center= -2.6D-12, -1.9D-12, -2.9D-12, r^2= 3.5D+00
   Bfn.  Coefficient  Atom+Function         Bfn.  Coefficient  Atom+Function  
  ----- ------------  ---------------      ----- ------------  ---------------
    11      0.094315   2 C  s                47      0.094315   6 C  s         
    56      0.094315   7 C  s                65      0.094315   8 C  s         
    74      0.094315   9 C  s                83      0.094315  10 C  s         
    92      0.094315  11 C  s               101      0.094315  12 C  s         
   128      0.094315  15 C  s               137      0.094315  16 C  s         
 
 Vector   22  Occ=2.000000D+00  E=-1.274050D+00
              MO Center=  1.2D-12,  2.0D-14,  1.3D-12, r^2= 3.8D+00
   Bfn.  Coefficient  Atom+Function         Bfn.  Coefficient  Atom+Function  
  ----- ------------  ---------------      ----- ------------  ---------------
    11      0.144712   2 C  s               137     -0.144712  16 C  s         
     2      0.142848   1 C  s               173     -0.142848  20 C  s         
 
 Vector   23  Occ=2.000000D+00  E=-1.274050D+00
              MO Center= -1.5D-12,  3.7D-13, -1.0D-12, r^2= 3.8D+00
   Bfn.  Coefficient  Atom+Function         Bfn.  Coefficient  Atom+Function  
  ----- ------------  ---------------      ----- ------------  ---------------
    83      0.157134  10 C  s               101     -0.157134  12 C  s         
 
 Vector   24  Occ=2.000000D+00  E=-1.274050D+00
              MO Center= -6.8D-13, -1.1D-12, -1.1D-12, r^2= 3.8D+00
   Bfn.  Coefficient  Atom+Function         Bfn.  Coefficient  Atom+Function  
  ----- ------------  ---------------      ----- ------------  ---------------
    74      0.149921   9 C  s                92     -0.149921  11 C  s         
 
 Vector   25  Occ=2.000000D+00  E=-1.101629D+00
              MO Center= -7.2D-13, -5.6D-13,  2.5D-13, r^2= 4.3D+00
   Bfn.  Coefficient  Atom+Function         Bfn.  Coefficient  Atom+Function  
  ----- ------------  ---------------      ----- ------------  ---------------
    60     -0.148793   7 C  s                87     -0.148793  10 C  s         
   105     -0.148793  12 C  s               132     -0.148793  15 C  s         
    56     -0.147030   7 C  s                83     -0.147030  10 C  s         
   101     -0.147030  12 C  s               128     -0.147030  15 C  s         
    47      0.139082   6 C  s                51      0.138919   6 C  s         
 
 Vector   26  Occ=2.000000D+00  E=-1.101629D+00
              MO Center= -1.1D-13, -4.2D-14, -1.2D-12, r^2= 4.3D+00
   Bfn.  Coefficient  Atom+Function         Bfn.  Coefficient  Atom+Function  
  ----- ------------  ---------------      ----- ------------  ---------------
    15      0.166111   2 C  s                78      0.166111   9 C  s         
    96      0.166111  11 C  s               141      0.166111  16 C  s         
    11      0.165187   2 C  s                74      0.165187   9 C  s         
    92      0.165187  11 C  s               137      0.165187  16 C  s         
 
 Vector   27  Occ=2.000000D+00  E=-1.093384D+00
              MO Center= -2.3D-13,  2.4D-13, -1.9D-13, r^2= 4.3D+00
   Bfn.  Coefficient  Atom+Function         Bfn.  Coefficient  Atom+Function  
  ----- ------------  ---------------      ----- ------------  ---------------
     6      0.185534   1 C  s               177      0.185534  20 C  s         
     2      0.178701   1 C  s               173      0.178701  20 C  s         
 
 Vector   28  Occ=2.000000D+00  E=-1.093384D+00
              MO Center= -3.6D-13, -1.0D-12,  7.3D-13, r^2= 4.3D+00
   Bfn.  Coefficient  Atom+Function         Bfn.  Coefficient  Atom+Function  
  ----- ------------  ---------------      ----- ------------  ---------------
    33      0.148767   4 C  s               150      0.148767  17 C  s         
    29      0.143288   4 C  s               146      0.143288  17 C  s         
 
 Vector   29  Occ=2.000000D+00  E=-1.093384D+00
              MO Center= -9.1D-14,  2.1D-13, -7.7D-13, r^2= 4.3D+00
   Bfn.  Coefficient  Atom+Function         Bfn.  Coefficient  Atom+Function  
  ----- ------------  ---------------      ----- ------------  ---------------
    42     -0.166879   5 C  s               123     -0.166879  14 C  s         
    24      0.162029   3 C  s               114      0.162029  13 C  s         
    38     -0.160733   5 C  s               119     -0.160733  14 C  s         
    20      0.156062   3 C  s               110      0.156062  13 C  s         
 
 Vector   30  Occ=2.000000D+00  E=-9.035467D-01
              MO Center=  6.7D-13,  3.0D-14, -2.9D-13, r^2= 4.7D+00
   Bfn.  Coefficient  Atom+Function         Bfn.  Coefficient  Atom+Function  
  ----- ------------  ---------------      ----- ------------  ---------------
    15      0.236663   2 C  s               141     -0.236663  16 C  s         
    11      0.193324   2 C  s               137     -0.193324  16 C  s         
 
 Vector   31  Occ=2.000000D+00  E=-9.035467D-01
              MO Center= -7.0D-13,  3.0D-13,  6.3D-13, r^2= 4.7D+00
   Bfn.  Coefficient  Atom+Function         Bfn.  Coefficient  Atom+Function  
  ----- ------------  ---------------      ----- ------------  ---------------
    69     -0.190736   8 C  s               168      0.190736  19 C  s         
    60      0.184570   7 C  s               132     -0.184570  15 C  s         
    65     -0.159627   8 C  s                87     -0.158957  10 C  s         
   105      0.158957  12 C  s               164      0.159627  19 C  s         
 
 Vector   32  Occ=2.000000D+00  E=-9.035467D-01
              MO Center=  9.2D-14, -3.7D-13, -1.7D-13, r^2= 4.7D+00
   Bfn.  Coefficient  Atom+Function         Bfn.  Coefficient  Atom+Function  
  ----- ------------  ---------------      ----- ------------  ---------------
    78      0.233652   9 C  s                96     -0.233652  11 C  s         
    74      0.190495   9 C  s                92     -0.190495  11 C  s         
 
 Vector   33  Occ=2.000000D+00  E=-9.000775D-01
              MO Center=  2.4D-13,  3.4D-13,  1.5D-13, r^2= 4.7D+00
   Bfn.  Coefficient  Atom+Function         Bfn.  Coefficient  Atom+Function  
  ----- ------------  ---------------      ----- ------------  ---------------
     6      0.199488   1 C  s                24      0.199488   3 C  s         
    33     -0.199488   4 C  s                42     -0.199488   5 C  s         
   114     -0.199488  13 C  s               123      0.199488  14 C  s         
   150      0.199488  17 C  s               177     -0.199488  20 C  s         
 
 Vector   34  Occ=2.000000D+00  E=-8.459574D-01
              MO Center= -6.9D-13, -4.1D-13,  3.3D-14, r^2= 4.7D+00
   Bfn.  Coefficient  Atom+Function         Bfn.  Coefficient  Atom+Function  
  ----- ------------  ---------------      ----- ------------  ---------------
    78      0.248727   9 C  s                96     -0.248727  11 C  s         
    42      0.214387   5 C  s               123     -0.214387  14 C  s         
    24      0.205821   3 C  s               114     -0.205821  13 C  s         
    87      0.191819  10 C  s               105     -0.191819  12 C  s         
    60      0.187093   7 C  s               132     -0.187093  15 C  s         
 
 Vector   35  Occ=2.000000D+00  E=-8.459574D-01
              MO Center= -3.4D-15, -3.4D-13, -6.8D-13, r^2= 4.7D+00
   Bfn.  Coefficient  Atom+Function         Bfn.  Coefficient  Atom+Function  
  ----- ------------  ---------------      ----- ------------  ---------------
    51      0.276762   6 C  s               159     -0.276762  18 C  s         
    69     -0.247621   8 C  s               168      0.247621  19 C  s         
    33     -0.191896   4 C  s               150      0.191896  17 C  s         
    24     -0.150504   3 C  s               114      0.150504  13 C  s         
 
 Vector   36  Occ=2.000000D+00  E=-8.459574D-01
              MO Center= -1.0D-12, -1.0D-12, -8.3D-13, r^2= 4.7D+00
   Bfn.  Coefficient  Atom+Function         Bfn.  Coefficient  Atom+Function  
  ----- ------------  ---------------      ----- ------------  ---------------
    15     -0.240600   2 C  s               141      0.240600  16 C  s         
     6      0.238122   1 C  s               177     -0.238122  20 C  s         
    60     -0.205810   7 C  s               132      0.205810  15 C  s         
    33      0.171568   4 C  s               150     -0.171568  17 C  s         
    87     -0.169089  10 C  s               105      0.169089  12 C  s         
 
 Vector   37  Occ=2.000000D+00  E=-7.001026D-01
              MO Center=  2.0D-13,  6.6D-13, -2.4D-13, r^2= 5.0D+00
   Bfn.  Coefficient  Atom+Function         Bfn.  Coefficient  Atom+Function  
  ----- ------------  ---------------      ----- ------------  ---------------
     6      0.167964   1 C  s                24      0.167964   3 C  s         
    33      0.167964   4 C  s                42      0.167964   5 C  s         
   114      0.167964  13 C  s               123      0.167964  14 C  s         
   150      0.167964  17 C  s               177      0.167964  20 C  s         
 
 Vector   38  Occ=2.000000D+00  E=-6.879499D-01
              MO Center= -1.3D-12,  2.8D-13, -6.0D-13, r^2= 5.0D+00
   Bfn.  Coefficient  Atom+Function         Bfn.  Coefficient  Atom+Function  
  ----- ------------  ---------------      ----- ------------  ---------------
    51     -0.194770   6 C  s                69      0.194770   8 C  s         
   159     -0.194770  18 C  s               168      0.194770  19 C  s         
    60     -0.193192   7 C  s                87      0.193192  10 C  s         
   105      0.193192  12 C  s               132     -0.193192  15 C  s         
    42     -0.188164   5 C  s               123     -0.188164  14 C  s         
 
 Vector   39  Occ=2.000000D+00  E=-6.879499D-01
              MO Center=  1.5D-12, -7.1D-13, -6.2D-13, r^2= 5.0D+00
   Bfn.  Coefficient  Atom+Function         Bfn.  Coefficient  Atom+Function  
  ----- ------------  ---------------      ----- ------------  ---------------
    15      0.267826   2 C  s                78     -0.267826   9 C  s         
    96     -0.267826  11 C  s               141      0.267826  16 C  s         
    33     -0.167335   4 C  s               150     -0.167335  17 C  s         
    48     -0.152815   6 C  px              156      0.152815  18 C  px        
 
 Vector   40  Occ=2.000000D+00  E=-6.879499D-01
              MO Center= -2.9D-13,  5.6D-13,  5.9D-13, r^2= 5.0D+00
   Bfn.  Coefficient  Atom+Function         Bfn.  Coefficient  Atom+Function  
  ----- ------------  ---------------      ----- ------------  ---------------
     6      0.208479   1 C  s               177      0.208479  20 C  s         
    51      0.189857   6 C  s                60     -0.189060   7 C  s         
    69     -0.189857   8 C  s                87      0.189060  10 C  s         
   105      0.189060  12 C  s               132     -0.189060  15 C  s         
   159      0.189857  18 C  s               168     -0.189857  19 C  s         
 
 Vector   41  Occ=2.000000D+00  E=-6.643527D-01
              MO Center= -2.7D-12, -1.9D-12, -2.8D-12, r^2= 6.0D+00
   Bfn.  Coefficient  Atom+Function         Bfn.  Coefficient  Atom+Function  
  ----- ------------  ---------------      ----- ------------  ---------------
    12      0.087489   2 C  px               50      0.087489   6 C  pz        
    58      0.087489   7 C  py               68      0.087489   8 C  pz        
    75      0.087489   9 C  px               85     -0.087489  10 C  py        
    93     -0.087489  11 C  px              103      0.087489  12 C  py        
   130     -0.087489  15 C  py              138     -0.087489  16 C  px        
 
 Vector   42  Occ=2.000000D+00  E=-6.258936D-01
              MO Center=  2.2D-13,  7.9D-13, -3.6D-12, r^2= 5.0D+00
   Bfn.  Coefficient  Atom+Function         Bfn.  Coefficient  Atom+Function  
  ----- ------------  ---------------      ----- ------------  ---------------
    49      0.213214   6 C  py               67     -0.213214   8 C  py        
   157     -0.213214  18 C  py              166      0.213214  19 C  py        
 
 Vector   43  Occ=2.000000D+00  E=-6.258936D-01
              MO Center= -1.2D-12, -8.8D-13,  9.1D-13, r^2= 5.0D+00
   Bfn.  Coefficient  Atom+Function         Bfn.  Coefficient  Atom+Function  
  ----- ------------  ---------------      ----- ------------  ---------------
    14      0.208720   2 C  pz               77     -0.208720   9 C  pz        
    95      0.208720  11 C  pz              140     -0.208720  16 C  pz        
    57     -0.160577   7 C  px               84     -0.160577  10 C  px        
   102      0.160577  12 C  px              129      0.160577  15 C  px        
 
 Vector   44  Occ=2.000000D+00  E=-6.187174D-01
              MO Center= -3.7D-12, -6.5D-13, -3.6D-12, r^2= 5.0D+00
   Bfn.  Coefficient  Atom+Function         Bfn.  Coefficient  Atom+Function  
  ----- ------------  ---------------      ----- ------------  ---------------
    13      0.238383   2 C  py              139     -0.238383  16 C  py        
    30     -0.151299   4 C  px              147      0.151299  17 C  px        
 
 Vector   45  Occ=2.000000D+00  E=-6.187174D-01
              MO Center= -1.2D-12, -4.4D-12, -1.0D-12, r^2= 5.0D+00
   Bfn.  Coefficient  Atom+Function         Bfn.  Coefficient  Atom+Function  
  ----- ------------  ---------------      ----- ------------  ---------------
    66     -0.193426   8 C  px              165      0.193426  19 C  px        
    59      0.186292   7 C  pz              131     -0.186292  15 C  pz        
 
 Vector   46  Occ=2.000000D+00  E=-6.187174D-01
              MO Center= -1.5D-13,  5.6D-13, -1.1D-12, r^2= 5.0D+00
   Bfn.  Coefficient  Atom+Function         Bfn.  Coefficient  Atom+Function  
  ----- ------------  ---------------      ----- ------------  ---------------
    76      0.233424   9 C  py               94     -0.233424  11 C  py        
    21     -0.155010   3 C  px              111      0.155010  13 C  px        
    86     -0.152344  10 C  pz              104      0.152344  12 C  pz        
    48      0.151407   6 C  px              156     -0.151407  18 C  px        
 
 Vector   47  Occ=2.000000D+00  E=-5.525427D-01
              MO Center=  1.9D-12, -3.9D-14,  1.6D-12, r^2= 6.1D+00
   Bfn.  Coefficient  Atom+Function         Bfn.  Coefficient  Atom+Function  
  ----- ------------  ---------------      ----- ------------  ---------------
    12      0.159968   2 C  px              138      0.159968  16 C  px        
 
 Vector   48  Occ=2.000000D+00  E=-5.525427D-01
              MO Center= -1.5D-12,  9.6D-13, -1.1D-12, r^2= 6.1D+00
   Bfn.  Coefficient  Atom+Function         Bfn.  Coefficient  Atom+Function  
  ----- ------------  ---------------      ----- ------------  ---------------
    85      0.174434  10 C  py              103      0.174434  12 C  py        
    58      0.158485   7 C  py              130      0.158485  15 C  py        
 
 Vector   49  Occ=2.000000D+00  E=-5.525427D-01
              MO Center= -3.5D-13, -9.7D-13, -5.2D-13, r^2= 6.1D+00
   Bfn.  Coefficient  Atom+Function         Bfn.  Coefficient  Atom+Function  
  ----- ------------  ---------------      ----- ------------  ---------------
    75      0.168368   9 C  px               93      0.168368  11 C  px        
 
 Vector   50  Occ=2.000000D+00  E=-5.375600D-01
              MO Center=  3.3D-12,  1.8D-12,  5.0D-12, r^2= 4.9D+00
   Bfn.  Coefficient  Atom+Function         Bfn.  Coefficient  Atom+Function  
  ----- ------------  ---------------      ----- ------------  ---------------
    49      0.178542   6 C  py               67     -0.179160   8 C  py        
    77     -0.178292   9 C  pz               95     -0.178292  11 C  pz        
   157      0.178542  18 C  py              166     -0.179160  19 C  py        
 
 Vector   51  Occ=2.000000D+00  E=-5.375600D-01
              MO Center=  3.0D-12,  1.7D-12,  1.6D-12, r^2= 4.9D+00
   Bfn.  Coefficient  Atom+Function         Bfn.  Coefficient  Atom+Function  
  ----- ------------  ---------------      ----- ------------  ---------------
    84     -0.239027  10 C  px              102     -0.239027  12 C  px        
    57      0.232669   7 C  px              129      0.232669  15 C  px        
    13     -0.161878   2 C  py               76     -0.161878   9 C  py        
    94     -0.161878  11 C  py              139     -0.161878  16 C  py        
 
 Vector   52  Occ=2.000000D+00  E=-5.375600D-01
              MO Center=  1.2D-12,  1.1D-12,  3.0D-12, r^2= 4.9D+00
   Bfn.  Coefficient  Atom+Function         Bfn.  Coefficient  Atom+Function  
  ----- ------------  ---------------      ----- ------------  ---------------
    14      0.187490   2 C  pz              140      0.187490  16 C  pz        
    67      0.163209   8 C  py              166      0.163209  19 C  py        
    77     -0.161664   9 C  pz               95     -0.161664  11 C  pz        
    49     -0.154040   6 C  py              157     -0.154040  18 C  py        
 
 Vector   53  Occ=2.000000D+00  E=-5.296404D-01
              MO Center=  2.1D-12,  3.5D-12,  3.5D-12, r^2= 4.9D+00
   Bfn.  Coefficient  Atom+Function         Bfn.  Coefficient  Atom+Function  
  ----- ------------  ---------------      ----- ------------  ---------------
    48      0.190837   6 C  px               66     -0.190837   8 C  px        
   156      0.190837  18 C  px              165     -0.190837  19 C  px        
    59      0.167553   7 C  pz               86     -0.167553  10 C  pz        
   104     -0.167553  12 C  pz              131      0.167553  15 C  pz        
 
 Vector   54  Occ=2.000000D+00  E=-5.296404D-01
              MO Center=  4.2D-12,  1.2D-12,  2.9D-12, r^2= 4.9D+00
   Bfn.  Coefficient  Atom+Function         Bfn.  Coefficient  Atom+Function  
  ----- ------------  ---------------      ----- ------------  ---------------
    13      0.206916   2 C  py               76     -0.206916   9 C  py        
    94     -0.206916  11 C  py              139      0.206916  16 C  py        
 
 Vector   55  Occ=2.000000D+00  E=-3.621706D-01
              MO Center=  8.1D-13,  1.3D-12, -9.4D-14, r^2= 6.2D+00
   Bfn.  Coefficient  Atom+Function         Bfn.  Coefficient  Atom+Function  
  ----- ------------  ---------------      ----- ------------  ---------------
    44      0.159182   5 C  py              125     -0.159182  14 C  py        
    26      0.157498   3 C  py              116     -0.157498  13 C  py        
 
 Vector   56  Occ=2.000000D+00  E=-3.621706D-01
              MO Center=  1.9D-12, -1.4D-12,  1.1D-12, r^2= 6.2D+00
   Bfn.  Coefficient  Atom+Function         Bfn.  Coefficient  Atom+Function  
  ----- ------------  ---------------      ----- ------------  ---------------
    34      0.148937   4 C  px              151     -0.148937  17 C  px        
    12      0.142049   2 C  px               32      0.141736   4 C  pz        
    75     -0.142049   9 C  px               93      0.142049  11 C  px        
   138     -0.142049  16 C  px              149     -0.141736  17 C  pz        
 
 Vector   57  Occ=2.000000D+00  E=-3.621706D-01
              MO Center= -6.7D-14,  3.1D-13, -3.0D-13, r^2= 6.2D+00
   Bfn.  Coefficient  Atom+Function         Bfn.  Coefficient  Atom+Function  
  ----- ------------  ---------------      ----- ------------  ---------------
     8      0.173757   1 C  py              179     -0.173757  20 C  py        
     9      0.166905   1 C  pz              180     -0.166905  20 C  pz        
     3      0.162969   1 C  px                4      0.162877   1 C  py        
   174     -0.162969  20 C  px              175     -0.162877  20 C  py        
     7      0.157140   1 C  px              178     -0.157140  20 C  px        
 
 Vector   58  Occ=2.000000D+00  E=-3.406266D-01
              MO Center=  4.1D-13,  2.9D-13,  1.9D-12, r^2= 6.2D+00
   Bfn.  Coefficient  Atom+Function         Bfn.  Coefficient  Atom+Function  
  ----- ------------  ---------------      ----- ------------  ---------------
    54      0.219834   6 C  pz               72      0.219834   8 C  pz        
   162     -0.219834  18 C  pz              171     -0.219834  19 C  pz        
    50      0.197907   6 C  pz               62     -0.198103   7 C  py        
    68      0.197907   8 C  pz               89      0.198103  10 C  py        
   107     -0.198103  12 C  py              134      0.198103  15 C  py        
 
 Vector   59  Occ=2.000000D+00  E=-3.406266D-01
              MO Center=  3.0D-13,  7.6D-13,  4.5D-13, r^2= 6.2D+00
   Bfn.  Coefficient  Atom+Function         Bfn.  Coefficient  Atom+Function  
  ----- ------------  ---------------      ----- ------------  ---------------
    16      0.241296   2 C  px               79      0.241296   9 C  px        
    97     -0.241296  11 C  px              142     -0.241296  16 C  px        
    12      0.212822   2 C  px               75      0.212822   9 C  px        
    93     -0.212822  11 C  px              138     -0.212822  16 C  px        
 
 Vector   60  Occ=2.000000D+00  E=-2.252253D-01
              MO Center=  2.3D-12,  1.9D-12,  1.5D-12, r^2= 6.4D+00
   Bfn.  Coefficient  Atom+Function         Bfn.  Coefficient  Atom+Function  
  ----- ------------  ---------------      ----- ------------  ---------------
     6      0.256009   1 C  s                24      0.256009   3 C  s         
    33     -0.256009   4 C  s                42     -0.256009   5 C  s         
   114     -0.256009  13 C  s               123      0.256009  14 C  s         
   150      0.256009  17 C  s               177     -0.256009  20 C  s         
     7     -0.164739   1 C  px                8     -0.164739   1 C  py        
 
 Vector   61  Occ=0.000000D+00  E=-4.088284D-02
              MO Center=  6.1D-13, -3.6D-13, -1.7D-12, r^2= 6.4D+00
   Bfn.  Coefficient  Atom+Function         Bfn.  Coefficient  Atom+Function  
  ----- ------------  ---------------      ----- ------------  ---------------
    79      0.331666   9 C  px               97      0.331666  11 C  px        
    78     -0.280777   9 C  s                96      0.280777  11 C  s         
    54      0.255772   6 C  pz              162      0.255772  18 C  pz        
    75      0.239411   9 C  px               93      0.239411  11 C  px        
    89      0.226661  10 C  py              107      0.226661  12 C  py        
 
 Vector   62  Occ=0.000000D+00  E=-4.088284D-02
              MO Center= -1.3D-12, -1.1D-12, -2.7D-12, r^2= 6.4D+00
   Bfn.  Coefficient  Atom+Function         Bfn.  Coefficient  Atom+Function  
  ----- ------------  ---------------      ----- ------------  ---------------
    62      0.321140   7 C  py              134      0.321140  15 C  py        
    60     -0.260763   7 C  s               132      0.260763  15 C  s         
    72     -0.254120   8 C  pz              171     -0.254120  19 C  pz        
    89      0.231238  10 C  py              107      0.231238  12 C  py        
    69      0.226706   8 C  s               168     -0.226706  19 C  s         
 
 Vector   63  Occ=0.000000D+00  E=-4.088284D-02
              MO Center= -8.9D-13, -3.0D-13, -7.9D-13, r^2= 6.4D+00
   Bfn.  Coefficient  Atom+Function         Bfn.  Coefficient  Atom+Function  
  ----- ------------  ---------------      ----- ------------  ---------------
    16      0.347438   2 C  px              142      0.347438  16 C  px        
    15     -0.294559   2 C  s               141      0.294559  16 C  s         
    12      0.251876   2 C  px              138      0.251876  16 C  px        
    72     -0.208093   8 C  pz              171     -0.208093  19 C  pz        
    54     -0.206759   6 C  pz              162     -0.206759  18 C  pz        
 
 Vector   64  Occ=0.000000D+00  E= 8.457264D-02
              MO Center= -1.3D-11, -9.8D-12, -1.1D-11, r^2= 7.5D+00
   Bfn.  Coefficient  Atom+Function         Bfn.  Coefficient  Atom+Function  
  ----- ------------  ---------------      ----- ------------  ---------------
    16      0.380145   2 C  px              142      0.380145  16 C  px        
    62      0.336792   7 C  py              134      0.336792  15 C  py        
     7     -0.255225   1 C  px              178     -0.255225  20 C  px        
     8     -0.253130   1 C  py              179     -0.253130  20 C  py        
     9     -0.251040   1 C  pz              180     -0.251040  20 C  pz        
 
 Vector   65  Occ=0.000000D+00  E= 8.457264D-02
              MO Center= -4.0D-12,  4.2D-12, -1.5D-11, r^2= 7.5D+00
   Bfn.  Coefficient  Atom+Function         Bfn.  Coefficient  Atom+Function  
  ----- ------------  ---------------      ----- ------------  ---------------
    54      0.439238   6 C  pz              162      0.439238  18 C  pz        
    72     -0.371241   8 C  pz              171     -0.371241  19 C  pz        
    89     -0.221887  10 C  py              107     -0.221887  12 C  py        
    36     -0.216257   4 C  pz              153     -0.216257  17 C  pz        
    35      0.212242   4 C  py              152      0.212242  17 C  py        
 
 Vector   66  Occ=0.000000D+00  E= 8.457264D-02
              MO Center= -1.5D-11,  8.8D-13,  8.4D-12, r^2= 7.5D+00
   Bfn.  Coefficient  Atom+Function         Bfn.  Coefficient  Atom+Function  
  ----- ------------  ---------------      ----- ------------  ---------------
    79      0.405349   9 C  px               97      0.405349  11 C  px        
    89     -0.302187  10 C  py              107     -0.302187  12 C  py        
    62      0.293168   7 C  py              134      0.293168  15 C  py        
    43     -0.225399   5 C  px              124     -0.225399  14 C  px        
    44      0.221008   5 C  py              125      0.221008  14 C  py        
 
 Vector   67  Occ=0.000000D+00  E= 1.302990D-01
              MO Center=  4.5D-12,  3.0D-12,  1.5D-11, r^2= 7.3D+00
   Bfn.  Coefficient  Atom+Function         Bfn.  Coefficient  Atom+Function  
  ----- ------------  ---------------      ----- ------------  ---------------
    54      0.360203   6 C  pz               72     -0.360203   8 C  pz        
   162     -0.360203  18 C  pz              171      0.360203  19 C  pz        
    62     -0.336395   7 C  py               89     -0.336395  10 C  py        
   107      0.336395  12 C  py              134      0.336395  15 C  py        
     7      0.243311   1 C  px                9      0.243229   1 C  pz        
 
 Vector   68  Occ=0.000000D+00  E= 1.302990D-01
              MO Center=  1.2D-11,  2.9D-13, -2.4D-12, r^2= 7.3D+00
   Bfn.  Coefficient  Atom+Function         Bfn.  Coefficient  Atom+Function  
  ----- ------------  ---------------      ----- ------------  ---------------
    16      0.492796   2 C  px               79     -0.492796   9 C  px        
    97      0.492796  11 C  px              142     -0.492796  16 C  px        
    15     -0.286576   2 C  s                78      0.286576   9 C  s         
    96      0.286576  11 C  s               141     -0.286576  16 C  s         
    12      0.210585   2 C  px               75     -0.210585   9 C  px        
 
 Vector   69  Occ=0.000000D+00  E= 1.302990D-01
              MO Center=  4.9D-13, -1.4D-12,  2.9D-12, r^2= 7.3D+00
   Bfn.  Coefficient  Atom+Function         Bfn.  Coefficient  Atom+Function  
  ----- ------------  ---------------      ----- ------------  ---------------
    62      0.373141   7 C  py               89      0.373141  10 C  py        
   107     -0.373141  12 C  py              134     -0.373141  15 C  py        
    54      0.351528   6 C  pz               72     -0.351528   8 C  pz        
   162     -0.351528  18 C  pz              171      0.351528  19 C  pz        
    60     -0.216993   7 C  s                87      0.216993  10 C  s         
 
 Vector   70  Occ=0.000000D+00  E= 1.339213D-01
              MO Center=  1.4D-11,  2.5D-12,  3.0D-12, r^2= 7.3D+00
   Bfn.  Coefficient  Atom+Function         Bfn.  Coefficient  Atom+Function  
  ----- ------------  ---------------      ----- ------------  ---------------
    16      0.223702   2 C  px               54      0.223702   6 C  pz        
    62      0.223702   7 C  py               72      0.223702   8 C  pz        
    79      0.223702   9 C  px               89     -0.223702  10 C  py        
    97     -0.223702  11 C  px              107      0.223702  12 C  py        
   134     -0.223702  15 C  py              142     -0.223702  16 C  px        
 
 Vector   71  Occ=0.000000D+00  E= 2.443957D-01
              MO Center=  5.9D-13,  2.5D-12, -4.4D-12, r^2= 6.4D+00
   Bfn.  Coefficient  Atom+Function         Bfn.  Coefficient  Atom+Function  
  ----- ------------  ---------------      ----- ------------  ---------------
    42      0.569732   5 C  s               123     -0.569732  14 C  s         
    78     -0.553225   9 C  s                96      0.553225  11 C  s         
    24      0.415207   3 C  s               114     -0.415207  13 C  s         
    69      0.411582   8 C  s               168     -0.411582  19 C  s         
    18     -0.389513   2 C  pz              144     -0.389513  16 C  pz        
 
 Vector   72  Occ=0.000000D+00  E= 2.443957D-01
              MO Center=  5.4D-13, -2.2D-12, -7.5D-12, r^2= 6.4D+00
   Bfn.  Coefficient  Atom+Function         Bfn.  Coefficient  Atom+Function  
  ----- ------------  ---------------      ----- ------------  ---------------
    60      0.560097   7 C  s               132     -0.560097  15 C  s         
    87     -0.503249  10 C  s               105      0.503249  12 C  s         
    17     -0.473848   2 C  py               80     -0.473848   9 C  py        
    98     -0.473848  11 C  py              143     -0.473848  16 C  py        
    24     -0.458291   3 C  s                71     -0.457078   8 C  py        
 
 Vector   73  Occ=0.000000D+00  E= 2.443957D-01
              MO Center=  6.2D-12, -4.2D-12,  1.0D-11, r^2= 6.4D+00
   Bfn.  Coefficient  Atom+Function         Bfn.  Coefficient  Atom+Function  
  ----- ------------  ---------------      ----- ------------  ---------------
    15      0.549227   2 C  s               141     -0.549227  16 C  s         
     6      0.525668   1 C  s               177     -0.525668  20 C  s         
    33      0.481804   4 C  s               150     -0.481804  17 C  s         
    81     -0.415218   9 C  pz               99     -0.415218  11 C  pz        
    69      0.412184   8 C  s               168     -0.412184  19 C  s         
 
 Vector   74  Occ=0.000000D+00  E= 3.780267D-01
              MO Center=  7.0D-11,  1.9D-10, -8.5D-11, r^2= 8.4D+00
   Bfn.  Coefficient  Atom+Function         Bfn.  Coefficient  Atom+Function  
  ----- ------------  ---------------      ----- ------------  ---------------
     6      3.045908   1 C  s                15     -3.052391   2 C  s         
   141      3.052391  16 C  s               177     -3.045908  20 C  s         
    33      2.172893   4 C  s               150     -2.172893  17 C  s         
    60     -2.081544   7 C  s               132      2.081544  15 C  s         
    78      1.658196   9 C  s                96     -1.658196  11 C  s         
 
 Vector   75  Occ=0.000000D+00  E= 3.780267D-01
              MO Center= -6.8D-11, -4.3D-11, -9.3D-11, r^2= 8.4D+00
   Bfn.  Coefficient  Atom+Function         Bfn.  Coefficient  Atom+Function  
  ----- ------------  ---------------      ----- ------------  ---------------
    78      2.791980   9 C  s                96     -2.791980  11 C  s         
    24      2.676844   3 C  s                42      2.683360   5 C  s         
   114     -2.676844  13 C  s               123     -2.683360  14 C  s         
    60      2.417981   7 C  s                87      2.421982  10 C  s         
   105     -2.421982  12 C  s               132     -2.417981  15 C  s         
 
 Vector   76  Occ=0.000000D+00  E= 3.780267D-01
              MO Center=  1.7D-10, -1.6D-10,  1.8D-10, r^2= 8.4D+00
   Bfn.  Coefficient  Atom+Function         Bfn.  Coefficient  Atom+Function  
  ----- ------------  ---------------      ----- ------------  ---------------
    51      3.186209   6 C  s               159     -3.186209  18 C  s         
    69     -2.758902   8 C  s               168      2.758902  19 C  s         
    33     -2.472196   4 C  s               150      2.472196  17 C  s         
    24     -1.944897   3 C  s               114      1.944897  13 C  s         
    42      1.776384   5 C  s               123     -1.776384  14 C  s         
 
 Vector   77  Occ=0.000000D+00  E= 3.872383D-01
              MO Center=  3.6D-12, -1.3D-10,  6.4D-11, r^2= 6.7D+00
   Bfn.  Coefficient  Atom+Function         Bfn.  Coefficient  Atom+Function  
  ----- ------------  ---------------      ----- ------------  ---------------
    42      1.224752   5 C  s               123      1.224752  14 C  s         
    53     -0.773143   6 C  py               71     -0.773143   8 C  py        
   161      0.773143  18 C  py              170      0.773143  19 C  py        
    51     -0.633216   6 C  s                69      0.633216   8 C  s         
   159     -0.633216  18 C  s               168      0.633216  19 C  s         
 
 Vector   78  Occ=0.000000D+00  E= 3.872383D-01
              MO Center=  6.8D-11, -9.6D-11, -6.3D-11, r^2= 6.7D+00
   Bfn.  Coefficient  Atom+Function         Bfn.  Coefficient  Atom+Function  
  ----- ------------  ---------------      ----- ------------  ---------------
     6      1.029532   1 C  s               177      1.029532  20 C  s         
    24     -0.978350   3 C  s               114     -0.978350  13 C  s         
    18     -0.860147   2 C  pz               81     -0.860147   9 C  pz        
    99      0.860147  11 C  pz              144      0.860147  16 C  pz        
    15      0.704473   2 C  s                78     -0.704473   9 C  s         
 
 Vector   79  Occ=0.000000D+00  E= 3.872383D-01
              MO Center= -7.2D-11,  5.3D-11,  4.2D-11, r^2= 6.7D+00
   Bfn.  Coefficient  Atom+Function         Bfn.  Coefficient  Atom+Function  
  ----- ------------  ---------------      ----- ------------  ---------------
    33      1.120181   4 C  s               150      1.120181  17 C  s         
    61      0.886942   7 C  px               88     -0.886942  10 C  px        
   106      0.886942  12 C  px              133     -0.886942  15 C  px        
     6     -0.740218   1 C  s               177     -0.740218  20 C  s         
    60     -0.726419   7 C  s                87      0.726419  10 C  s         
 
 Vector   80  Occ=0.000000D+00  E= 3.949579D-01
              MO Center= -2.2D-11,  8.4D-11,  1.1D-10, r^2= 7.1D+00
   Bfn.  Coefficient  Atom+Function         Bfn.  Coefficient  Atom+Function  
  ----- ------------  ---------------      ----- ------------  ---------------
    15      1.280783   2 C  s                78      1.280783   9 C  s         
    96      1.280783  11 C  s               141      1.280783  16 C  s         
    60     -1.143222   7 C  s                87     -1.143222  10 C  s         
   105     -1.143222  12 C  s               132     -1.143222  15 C  s         
     8      0.641542   1 C  py               26     -0.641542   3 C  py        
 
 Vector   81  Occ=0.000000D+00  E= 3.949579D-01
              MO Center=  2.2D-13,  5.5D-11,  4.8D-11, r^2= 7.1D+00
   Bfn.  Coefficient  Atom+Function         Bfn.  Coefficient  Atom+Function  
  ----- ------------  ---------------      ----- ------------  ---------------
    51      1.399500   6 C  s                69      1.399500   8 C  s         
   159      1.399500  18 C  s               168      1.399500  19 C  s         
    60     -0.818881   7 C  s                87     -0.818881  10 C  s         
   105     -0.818881  12 C  s               132     -0.818881  15 C  s         
     9     -0.604566   1 C  pz               27     -0.604566   3 C  pz        
 
 Vector   82  Occ=0.000000D+00  E= 3.954923D-01
              MO Center= -4.2D-11, -1.1D-11,  5.9D-12, r^2= 6.7D+00
   Bfn.  Coefficient  Atom+Function         Bfn.  Coefficient  Atom+Function  
  ----- ------------  ---------------      ----- ------------  ---------------
    42      1.114601   5 C  s               123      1.114601  14 C  s         
    80      0.783617   9 C  py               98     -0.783617  11 C  py        
    24     -0.744923   3 C  s               114     -0.744923  13 C  s         
    90      0.679256  10 C  pz              108     -0.679256  12 C  pz        
    35      0.623243   4 C  py              152     -0.623243  17 C  py        
 
 Vector   83  Occ=0.000000D+00  E= 3.954923D-01
              MO Center= -3.6D-11, -1.6D-12, -4.8D-11, r^2= 6.7D+00
   Bfn.  Coefficient  Atom+Function         Bfn.  Coefficient  Atom+Function  
  ----- ------------  ---------------      ----- ------------  ---------------
    24      0.914707   3 C  s                52      0.910173   6 C  px        
   114      0.914707  13 C  s               160     -0.910173  18 C  px        
    33     -0.757216   4 C  s                70      0.755735   8 C  px        
   150     -0.757216  17 C  s               169     -0.755735  19 C  px        
    43      0.631733   5 C  px              124     -0.631733  14 C  px        
 
 Vector   84  Occ=0.000000D+00  E= 3.954923D-01
              MO Center= -4.4D-11,  2.3D-11,  1.8D-11, r^2= 6.7D+00
   Bfn.  Coefficient  Atom+Function         Bfn.  Coefficient  Atom+Function  
  ----- ------------  ---------------      ----- ------------  ---------------
     6      1.033401   1 C  s               177      1.033401  20 C  s         
    33     -0.887031   4 C  s               150     -0.887031  17 C  s         
    17     -0.808561   2 C  py              143      0.808561  16 C  py        
    63     -0.652795   7 C  pz              135      0.652795  15 C  pz        
    26      0.632224   3 C  py              116     -0.632224  13 C  py        
 
 Vector   85  Occ=0.000000D+00  E= 5.322879D-01
              MO Center=  2.4D-11,  1.0D-10, -5.6D-11, r^2= 8.7D+00
   Bfn.  Coefficient  Atom+Function         Bfn.  Coefficient  Atom+Function  
  ----- ------------  ---------------      ----- ------------  ---------------
     6      2.484964   1 C  s                24      2.484964   3 C  s         
    33      2.484964   4 C  s                42      2.484964   5 C  s         
   114      2.484964  13 C  s               123      2.484964  14 C  s         
   150      2.484964  17 C  s               177      2.484964  20 C  s         
    15     -1.640892   2 C  s                51     -1.640892   6 C  s         
 

 center of mass
 --------------
 x =   0.00000000 y =   0.00000000 z =   0.00000000

 moments of inertia (a.u.)
 ------------------
        2348.971705503405           0.000000000000          -0.000000000000
           0.000000000000        2348.971705503405           0.000000000000
          -0.000000000000           0.000000000000        2348.971705503405
 
  Mulliken analysis of the total density
  --------------------------------------

    Atom       Charge   Shell Charges
 -----------   ------   -------------------------------------------------------
    1 C    6     6.03   2.00  0.64  2.03  0.55  0.82
    2 C    6     5.98   2.00  0.67  1.95  0.63  0.74
    3 C    6     6.03   2.00  0.64  2.03  0.55  0.82
    4 C    6     6.03   2.00  0.64  2.03  0.55  0.82
    5 C    6     6.03   2.00  0.64  2.03  0.55  0.82
    6 C    6     5.98   2.00  0.67  1.95  0.63  0.74
    7 C    6     5.98   2.00  0.67  1.95  0.63  0.74
    8 C    6     5.98   2.00  0.67  1.95  0.63  0.74
    9 C    6     5.98   2.00  0.67  1.95  0.63  0.74
   10 C    6     5.98   2.00  0.67  1.95  0.63  0.74
   11 C    6     5.98   2.00  0.67  1.95  0.63  0.74
   12 C    6     5.98   2.00  0.67  1.95  0.63  0.74
   13 C    6     6.03   2.00  0.64  2.03  0.55  0.82
   14 C    6     6.03   2.00  0.64  2.03  0.55  0.82
   15 C    6     5.98   2.00  0.67  1.95  0.63  0.74
   16 C    6     5.98   2.00  0.67  1.95  0.63  0.74
   17 C    6     6.03   2.00  0.64  2.03  0.55  0.82
   18 C    6     5.98   2.00  0.67  1.95  0.63  0.74
   19 C    6     5.98   2.00  0.67  1.95  0.63  0.74
   20 C    6     6.03   2.00  0.64  2.03  0.55  0.82
 
       Multipole analysis of the density wrt the origin
       ------------------------------------------------
 
     L   x y z        total         open         nuclear
     -   - - -        -----         ----         -------
     0   0 0 0     -0.000000      0.000000    120.000000
 
     1   1 0 0     -0.000000      0.000000      0.000000
     1   0 1 0     -0.000000      0.000000      0.000000
     1   0 0 1     -0.000000      0.000000      0.000000
 
     2   2 0 0    -87.309284      0.000000    587.242926
     2   1 1 0      0.000000      0.000000      0.000000
     2   1 0 1      0.000000      0.000000      0.000000
     2   0 2 0    -87.309284      0.000000    587.242926
     2   0 1 1      0.000000      0.000000      0.000000
     2   0 0 2    -87.309284      0.000000    587.242926
 

 Task  times  cpu:      770.1s     wall:      719.3s
 
 
                                NWChem Input Module
                                -------------------
 
 
 Summary of allocated global arrays
-----------------------------------
  No active global arrays



                         GA Statistics for process    0
                         ------------------------------

       create   destroy   get      put      acc     scatter   gather  read&inc
calls:  425      425     3.05e+04 2.17e+04 2.31e+04    0        0      494     
number of processes/call 1.00e+00 1.00e+00 1.00e+00 0.00e+00 0.00e+00
bytes total:             1.48e+08 9.70e+07 2.10e+07 0.00e+00 0.00e+00 3.95e+03
bytes remote:            0.00e+00 0.00e+00 0.00e+00 0.00e+00 0.00e+00 0.00e+00
Max memory consumed for GA by this process: 3715200 bytes
 
MA_summarize_allocated_blocks: starting scan ...
MA_summarize_allocated_blocks: scan completed: 0 heap blocks, 0 stack blocks
MA usage statistics:

	allocation statistics:
					      heap	     stack
					      ----	     -----
	current number of blocks	         0	         0
	maximum number of blocks	        16	        14
	current total bytes		         0	         0
	maximum total bytes		     80096	  22513608
	maximum total K-bytes		        81	     22514
	maximum total M-bytes		         1	        23
 
 
                                     CITATION
                                     --------
                Please cite the following reference when publishing
                           results obtained with NWChem:
 
                 M. Valiev, E.J. Bylaska, N. Govind, K. Kowalski,
              T.P. Straatsma, H.J.J. van Dam, D. Wang, J. Nieplocha,
                        E. Apra, T.L. Windus, W.A. de Jong
                 "NWChem: a comprehensive and scalable open-source
                  solution for large scale molecular simulations"
                      Comput. Phys. Commun. 181, 1477 (2010)
                           doi:10.1016/j.cpc.2010.04.018
 
                              AUTHORS & CONTRIBUTORS
                              ----------------------
          E. Apra, E. J. Bylaska, W. A. de Jong, N. Govind, K. Kowalski,
       T. P. Straatsma, M. Valiev, H. J. J. van Dam, D. Wang, T. L. Windus,
        J. Hammond, J. Autschbach, K. Bhaskaran-Nair, J. Brabec, K. Lopata,
     F. Aquino, S. Hirata, M. T. Hackler, T. Risthaus, M. Malagoli,J. Mullin,
        P. Nichols, R. Peverati, J. Pittner, Y. Zhao, P.-D. Fan, A. Fonari,
     R. J. Harrison, M. Dupuis, D. Silverstein, D. M. A. Smith, J. Nieplocha,
        V. Tipparaju, M. Krishnan, B. E. Van Kuiken, A. Vazquez-Mayagoitia,
        L. Jensen, M. Swart, Q. Wu, T. Van Voorhis, A. A. Auer, M. Nooijen,
      L. D. Crosby, E. Brown, G. Cisneros, G. I. Fann, H. Fruchtl, J. Garza,
   K. Hirao, R. Kendall, J. A. Nichols, K. Tsemekhman, K. Wolinski, J. Anchell,
       D. Bernholdt, P. Borowski, T. Clark, D. Clerc, H. Dachsel, M. Deegan,
        K. Dyall, D. Elwood, E. Glendening, M. Gutowski, A. Hess, J. Jaffe,
   B. Johnson, J. Ju, R. Kobayashi, R. Kutteh, Z. Lin, R. Littlefield, X. Long,
        B. Meng, T. Nakajima, S. Niu, L. Pollack, M. Rosing, K. Glaesemann,
      G. Sandrone, M. Stave, H. Taylor, G. Thomas, J. H. van Lenthe, A. Wong,
                                     Z. Zhang.

 Total times  cpu:      770.1s     wall:      719.4s
